 Fermi distribution function

Calculation with static geometry


********************************************************************************
 iSCC Total electronic   Diff electronic      SCC error    
    8   -0.31994047E+01    0.26645353E-14    0.20394353E-10
********************************************************************************

 Total charge:     0.00000000

 Atomic gross charges (e)
 Atom           Charge
    1       0.08138002
    2       0.07512330
    3       0.08184221
    4       0.06612739
    5      -0.30447292

Nr. of electrons (up):      8.00000000
Atom populations (up)
 Atom       Population
    1       0.91861998
    2       0.92487670
    3       0.91815779
    4       0.93387261
    5       4.30447292

l-shell populations (up)
 Atom Sh.   l       Population
    1   1   0       0.91861998
    2   1   0       0.92487670
    3   1   0       0.91815779
    4   1   0       0.93387261
    5   1   0       1.31387443
    5   2   1       2.99059849

Orbital populations (up)
 Atom Sh.   l   m       Population  Label
    1   1   0   0       0.91861998  s
    2   1   0   0       0.92487670  s
    3   1   0   0       0.91815779  s
    4   1   0   0       0.93387261  s
    5   1   0   0       1.31387443  s
    5   2   1  -1       1.00855945  p_y
    5   2   1   0       0.96337407  p_z
    5   2   1   1       1.01866497  p_x

Fermi level:                        -0.0567579280 H           -1.5445 eV
Band energy:                        -3.1187205478 H          -84.8647 eV
TS:                                  0.0000000000 H            0.0000 eV
Band free energy (E-TS):            -3.1187205478 H          -84.8647 eV
Extrapolated E(0K):                 -3.1187205478 H          -84.8647 eV
Input / Output electrons (q):      8.0000000000      8.0000000000

Energy H0:                          -3.2006037431 H          -87.0929 eV
Energy SCC:                          0.0011990245 H            0.0326 eV
Total Electronic energy:            -3.1994047186 H          -87.0602 eV
Repulsive energy:                   -0.0084404037 H           -0.2297 eV
Total energy:                       -3.2078451223 H          -87.2899 eV
Extrapolated to 0:                  -3.2078451223 H          -87.2899 eV
Total Mermin free energy:           -3.2078451223 H          -87.2899 eV
Force related energy:               -3.2078451223 H          -87.2899 eV

SCC converged

Total Forces
    1      0.005297759264      0.002883585284      0.033867177294
    2     -0.002153008119      0.003918892685      0.005205102895
    3     -0.032977502112     -0.010184765509     -0.043283323628
    4      0.015019184108     -0.002682335783      0.015056600509
    5      0.014813566858      0.006064623323     -0.010845557070

Maximal derivative component:        0.432833E-01 au

Dipole moment:   -0.00366591   -0.00773464   -0.02334854 au
Dipole moment:   -0.00931781   -0.01965951   -0.05934608 Debye


