 Fermi distribution function

Calculation with static geometry


********************************************************************************
 iSCC Total electronic   Diff electronic      SCC error    
    7   -0.32444027E+01    0.13322676E-14    0.58043094E-08
********************************************************************************

 Total charge:    -0.00000000

 Atomic gross charges (e)
 Atom           Charge
    1       0.08014884
    2       0.07695683
    3       0.07801528
    4       0.07705200
    5      -0.31217295

Nr. of electrons (up):      8.00000000
Atom populations (up)
 Atom       Population
    1       0.91985116
    2       0.92304317
    3       0.92198472
    4       0.92294800
    5       4.31217295

l-shell populations (up)
 Atom Sh.   l       Population
    1   1   0       0.91985116
    2   1   0       0.92304317
    3   1   0       0.92198472
    4   1   0       0.92294800
    5   1   0       1.29111773
    5   2   1       3.02105522

Orbital populations (up)
 Atom Sh.   l   m       Population  Label
    1   1   0   0       0.91985116  s
    2   1   0   0       0.92304317  s
    3   1   0   0       0.92198472  s
    4   1   0   0       0.92294800  s
    5   1   0   0       1.29111773  s
    5   2   1  -1       1.00393070  p_y
    5   2   1   0       1.01587388  p_z
    5   2   1   1       1.00125064  p_x

Fermi level:                        -0.0012710621 H           -0.0346 eV
Band energy:                        -3.1686319929 H          -86.2229 eV
TS:                                  0.0000000000 H            0.0000 eV
Band free energy (E-TS):            -3.1686319929 H          -86.2229 eV
Extrapolated E(0K):                 -3.1686319929 H          -86.2229 eV
Input / Output electrons (q):      8.0000000000      8.0000000000

Energy H0:                          -3.2454436139 H          -88.3130 eV
Energy SCC:                          0.0010409254 H            0.0283 eV
Total Electronic energy:            -3.2444026885 H          -88.2847 eV
Repulsive energy:                    0.0207837439 H            0.5656 eV
Total energy:                       -3.2236189446 H          -87.7191 eV
Extrapolated to 0:                  -3.2236189446 H          -87.7191 eV
Total Mermin free energy:           -3.2236189446 H          -87.7191 eV
Force related energy:               -3.2236189446 H          -87.7191 eV

SCC converged

Total Forces
    1      0.007081217951     -0.006055625878     -0.004779829464
    2     -0.009580660195     -0.011389458834      0.005343227487
    3      0.009656994804      0.008324385404      0.013861175937
    4     -0.007288539967      0.008569449210     -0.000737695052
    5      0.000130987406      0.000551250098     -0.013686878907

Maximal derivative component:        0.138612E-01 au

Dipole moment:    0.00204989   -0.00397651    0.00958749 au
Dipole moment:    0.00521030   -0.01010727    0.02436896 Debye


