 Fermi distribution function

Calculation with static geometry


********************************************************************************
 iSCC Total electronic   Diff electronic      SCC error    
    7   -0.41349764E+01   -0.22204460E-13    0.28477221E-11
********************************************************************************

 Total charge:    -0.00000000

 Atomic gross charges (e)
 Atom           Charge
    1      -0.59217903
    2       0.28517012
    3       0.30700891

Nr. of electrons (up):      8.00000000
Atom populations (up)
 Atom       Population
    1       6.59217903
    2       0.71482988
    3       0.69299109

l-shell populations (up)
 Atom Sh.   l       Population
    1   1   0       1.74181734
    1   2   1       4.85036168
    2   1   0       0.71482988
    3   1   0       0.69299109

Orbital populations (up)
 Atom Sh.   l   m       Population  Label
    1   1   0   0       1.74181734  s
    1   2   1  -1       1.16705895  p_y
    1   2   1   0       1.68330273  p_z
    1   2   1   1       2.00000000  p_x
    2   1   0   0       0.71482988  s
    3   1   0   0       0.69299109  s

Fermi level:                         0.0162424537 H            0.4420 eV
Band energy:                        -3.6449872529 H          -99.1851 eV
TS:                                  0.0000000000 H            0.0000 eV
Band free energy (E-TS):            -3.6449872529 H          -99.1851 eV
Extrapolated E(0K):                 -3.6449872529 H          -99.1851 eV
Input / Output electrons (q):      8.0000000000      8.0000000000

Energy H0:                          -4.1537698711 H         -113.0298 eV
Energy SCC:                          0.0187934323 H            0.5114 eV
Total Electronic energy:            -4.1349764388 H         -112.5184 eV
Repulsive energy:                    0.0639784241 H            1.7409 eV
Total energy:                       -4.0709980147 H         -110.7775 eV
Extrapolated to 0:                  -4.0709980147 H         -110.7775 eV
Total Mermin free energy:           -4.0709980147 H         -110.7775 eV
Force related energy:               -4.0709980147 H         -110.7775 eV

SCC converged

Total Forces
    1     -0.000000000000      0.084356099331     -0.008079136567
    2     -0.000000000000     -0.056194929303      0.033792543934
    3      0.000000000000     -0.028161170028     -0.025713407368

Maximal derivative component:        0.843561E-01 au

Dipole moment:    0.00000000    0.01878959   -0.63487933 au
Dipole moment:    0.00000000    0.04775837   -1.61370242 Debye


