|===============================================================================
|
|  DFTB+ development version (commit: e9f7d9c, base: 18.2)
|
|  Copyright (C) 2006 - 2019  DFTB+ developers group
|
|===============================================================================
|
|  When publishing results obtained with DFTB+, please cite the following
|  reference:
|
|  * B. Aradi, B. Hourahine and T. Frauenheim,
|    DFTB+, a Sparse Matrix-Based Implementation of the DFTB Method,
|    J. Phys. Chem. A, 111 5678 (2007).  [doi: 10.1021/jp070186p]
|
|  You should also cite additional publications crediting the parametrization
|  data you use. Please consult the documentation of the SK-files for the
|  references.
|
|===============================================================================

Reading input file 'dftb_in.hsd'
Parser version: 7

--------------------------------------------------------------------------------
***  Converting input from version  5 to version  7 ...
WARNING!
-> Keyword renamed to 'Solver'.
Path: dftbplusinput/Hamiltonian/DFTB/Eigensolver
Line: 17-17 (File: dftb_in.hsd)

***  Done.

Reading SK-files:
Done.
WARNING!
-> Settings will be read but ignored (compiled without MPI support)
Path: dftbplusinput/Parallel
Line: 35-37 (File: dftb_in.hsd)



Processed input in HSD format written to 'dftb_pin.hsd'

Starting initialization...
--------------------------------------------------------------------------------
OpenMP threads:              4
Chosen random seed:          1886887975
Mode:                        Static calculation
Self consistent charges:     Yes
SCC-tolerance:                 0.100000E-07
Max. scc iterations:                    100
Shell resolved Hubbard:      No
Spin polarisation:           No
Nr. of up electrons:             4.000000
Nr. of down electrons:           4.000000
Periodic boundaries:         No
Electronic solver:           Divide and Conquer
Mixer:                       Broyden mixer
Mixing parameter:                  0.200000
Maximal SCC-cycles:                     100
Nr. of chrg. vec. in memory:              0
Electronic temperature:        0.100000E-07 H      0.272114E-06 eV
Initial charges:             Set automatically (system chrg:   0.000E+00)
Included shells:             H:  s
                             C:  s, p
Extra options:
                             Mulliken analysis
                             Force calculation
Force type                   original

--------------------------------------------------------------------------------

***  Geometry step: 0

 iSCC Total electronic   Diff electronic      SCC error    
 qOutput  0.90039114948219523        0.0000000000000000        0.0000000000000000        0.0000000000000000       0.91023284950015493        0.0000000000000000        0.0000000000000000        0.0000000000000000       0.89959203002416732        0.0000000000000000        0.0000000000000000        0.0000000000000000       0.91826722891059387        0.0000000000000000        0.0000000000000000        0.0000000000000000        1.3284595647113815        1.0259357007644576       0.98039924854265159        1.0367222280643986     
 energy%EnonSCC  -3.2008684258045079      atom.. -0.34685282090058323      -0.35465674109849304      -0.34536118657000575      -0.35024541374812190       -1.8037522634873042     
    1   -0.31990815E+01    0.00000000E+00    0.37151674E+00
 qOutput  0.90486157947878421        0.0000000000000000        0.0000000000000000        0.0000000000000000       0.91369056451968733        0.0000000000000000        0.0000000000000000        0.0000000000000000       0.90415727573124649        0.0000000000000000        0.0000000000000000        0.0000000000000000       0.92213801545906249        0.0000000000000000        0.0000000000000000        0.0000000000000000        1.3249096332387167        1.0217512809255473       0.97620306774274113        1.0322885829042110     
 energy%EnonSCC  -3.2008526255068319      atom.. -0.34794581816212855      -0.35551363697655042      -0.34651228335989265      -0.35115848233079550       -1.7997224046774649     
    2   -0.31992201E+01   -0.13866863E-03    0.28084922E+00
 qOutput  0.91869813230579067        0.0000000000000000        0.0000000000000000        0.0000000000000000       0.92452863868752222        0.0000000000000000        0.0000000000000000        0.0000000000000000       0.91827486359017985        0.0000000000000000        0.0000000000000000        0.0000000000000000       0.93406767219109177        0.0000000000000000        0.0000000000000000        0.0000000000000000        1.3138725725494202        1.0087242468993980       0.96325411901026159        1.0185797547663391     
 energy%EnonSCC  -3.2006031403327233      atom.. -0.35129895030962094      -0.35818067338815435      -0.35004385325384502      -0.35395053214564420       -1.7871291312354585     
    3   -0.31994047E+01   -0.18453548E-03    0.15055291E-02
 qOutput  0.91867351369471895        0.0000000000000000        0.0000000000000000        0.0000000000000000       0.92462853016313062        0.0000000000000000        0.0000000000000000        0.0000000000000000       0.91823924898011189        0.0000000000000000        0.0000000000000000        0.0000000000000000       0.93401064297402436        0.0000000000000000        0.0000000000000000        0.0000000000000000        1.3138742537957735        1.0086779306691560       0.96329001809299319        1.0186058616300935     
 energy%EnonSCC  -3.2006033655280728      atom.. -0.35129337902008656      -0.35820430411600473      -0.35003540770829922      -0.35393719643022270       -1.7871330782534596     
    4   -0.31994047E+01   -0.28606053E-07    0.10755811E-02
 qOutput  0.91861850617314655        0.0000000000000000        0.0000000000000000        0.0000000000000000       0.92487724793017800        0.0000000000000000        0.0000000000000000        0.0000000000000000       0.91815710994379984        0.0000000000000000        0.0000000000000000        0.0000000000000000       0.93387433733068703        0.0000000000000000        0.0000000000000000        0.0000000000000000        1.3138744569033232        1.0085596303519631       0.96337366319618833        1.0186650481707207     
 energy%EnonSCC  -3.2006037445857878      atom.. -0.35128100947968527      -0.35826316294963095      -0.35001598621168922      -0.35390531372067202       -1.7871382722241105     
    5   -0.31994047E+01   -0.29031556E-07    0.77032248E-05
 qOutput  0.91861978601042349        0.0000000000000000        0.0000000000000000        0.0000000000000000       0.92487676120133622        0.0000000000000000        0.0000000000000000        0.0000000000000000       0.91815773045136373        0.0000000000000000        0.0000000000000000        0.0000000000000000       0.93387280486245472        0.0000000000000000        0.0000000000000000        0.0000000000000000        1.3138744329377579        1.0085594766335488       0.96337401761547270        1.0186649902876406     
 energy%EnonSCC  -3.2006037433211505      atom.. -0.35128132115118577      -0.35826305192049385      -0.35001613402701298      -0.35390495301899072       -1.7871382832034668     
    6   -0.31994047E+01   -0.17976731E-11    0.86895442E-06
 qOutput  0.91861996434685911        0.0000000000000000        0.0000000000000000        0.0000000000000000       0.92487669910298531        0.0000000000000000        0.0000000000000000        0.0000000000000000       0.91815780788103585        0.0000000000000000        0.0000000000000000        0.0000000000000000       0.93387260622593837        0.0000000000000000        0.0000000000000000        0.0000000000000000        1.3138744275448075        1.0085594530421125       0.96337406385715618        1.0186649779991093     
 energy%EnonSCC  -3.2006037430678496      atom.. -0.35128136449922576      -0.35826303778220664      -0.35001615252973595      -0.35390490621370269       -1.7871382820429784     
    7   -0.31994047E+01   -0.27089442E-13    0.65019528E-07
 qOutput  0.91861997836568288        0.0000000000000000        0.0000000000000000        0.0000000000000000       0.92487669904781888        0.0000000000000000        0.0000000000000000        0.0000000000000000       0.91815778824625516        0.0000000000000000        0.0000000000000000        0.0000000000000000       0.93387261211008110        0.0000000000000000        0.0000000000000000        0.0000000000000000        1.3138744278710877        1.0085594522307693       0.96337406853299523        1.0186649735953066     
 energy%EnonSCC  -3.2006037430658498      atom.. -0.35128136772811464      -0.35826303773727364      -0.35001614791834207      -0.35390490748589765       -1.7871382821962218     
    8   -0.31994047E+01    0.26645353E-14    0.20394353E-10
>> Charges saved for restart in charges.bin

Total Energy:                       -3.2078451223 H          -87.2899 eV
Extrapolated to 0:                  -3.2078451223 H          -87.2899 eV
Total Mermin free energy:           -3.2078451223 H          -87.2899 eV
Force related energy:               -3.2078451223 H          -87.2899 eV

--------------------------------------------------------------------------------
DFTB+ running times                          cpu [s]             wall clock [s]
--------------------------------------------------------------------------------
Pre-SCC initialisation                 +     0.26  ( 13.9%)      0.09  ( 16.2%)
SCC                                    +     1.47  ( 78.3%)      0.44  ( 75.9%)
Post-SCC processing                    +     0.13  (  7.0%)      0.04  (  6.3%)
--------------------------------------------------------------------------------
Missing                                +     0.02  (  0.9%)      0.01  (  1.5%)
Total                                  =     1.88  (100.0%)      0.58  (100.0%)
--------------------------------------------------------------------------------
