|===============================================================================
|
|  DFTB+ development version (commit: e9f7d9c, base: 18.2)
|
|  Copyright (C) 2006 - 2019  DFTB+ developers group
|
|===============================================================================
|
|  When publishing results obtained with DFTB+, please cite the following
|  reference:
|
|  * B. Aradi, B. Hourahine and T. Frauenheim,
|    DFTB+, a Sparse Matrix-Based Implementation of the DFTB Method,
|    J. Phys. Chem. A, 111 5678 (2007).  [doi: 10.1021/jp070186p]
|
|  You should also cite additional publications crediting the parametrization
|  data you use. Please consult the documentation of the SK-files for the
|  references.
|
|===============================================================================

Reading input file 'dftb_in.hsd'
Parser version: 7

--------------------------------------------------------------------------------
***  Converting input from version  5 to version  7 ...
WARNING!
-> Keyword renamed to 'Solver'.
Path: dftbplusinput/Hamiltonian/DFTB/Eigensolver
Line: 17-17 (File: dftb_in.hsd)

***  Done.

Reading SK-files:
Done.
WARNING!
-> Settings will be read but ignored (compiled without MPI support)
Path: dftbplusinput/Parallel
Line: 35-37 (File: dftb_in.hsd)



Processed input in HSD format written to 'dftb_pin.hsd'

Starting initialization...
--------------------------------------------------------------------------------
OpenMP threads:              4
Chosen random seed:          794103759
Mode:                        Static calculation
Self consistent charges:     Yes
SCC-tolerance:                 0.100000E-07
Max. scc iterations:                    100
Shell resolved Hubbard:      No
Spin polarisation:           No
Nr. of up electrons:             4.000000
Nr. of down electrons:           4.000000
Periodic boundaries:         No
Electronic solver:           Divide and Conquer
Mixer:                       Broyden mixer
Mixing parameter:                  0.200000
Maximal SCC-cycles:                     100
Nr. of chrg. vec. in memory:              0
Electronic temperature:        0.100000E-07 H      0.272114E-06 eV
Initial charges:             Set automatically (system chrg:   0.000E+00)
Included shells:             O:  s, p
                             H:  s
Extra options:
                             Mulliken analysis
                             Force calculation
Force type                   original

--------------------------------------------------------------------------------

***  Geometry step: 0

 iSCC Total electronic   Diff electronic      SCC error    
 qOutput   1.7222103767748849        1.2441722897340239        1.7778954677723371        1.9999999999999996       0.62880275533981334        0.0000000000000000        0.0000000000000000        0.0000000000000000       0.62691911037894210        0.0000000000000000        0.0000000000000000        0.0000000000000000     
 energy%EnonSCC  -4.2201797267811649      atom..  -3.4913333044569503      -0.37167739868487387      -0.35716902363934044     
    1   -0.41957636E+01    0.00000000E+00    0.74427813E+00
 qOutput   1.7140919637855772        1.2269187722027208        1.7722836684932599        2.0000000000000009       0.64315062374005660        0.0000000000000000        0.0000000000000000        0.0000000000000000       0.64355497177838372        0.0000000000000000        0.0000000000000000        0.0000000000000000     
 energy%EnonSCC  -4.2199755481995620      atom..  -3.4796097784314997      -0.37714290871047179      -0.36322286105759050     
    2   -0.41975549E+01   -0.17912183E-02    0.56443878E+00
 qOutput   1.6881034185863137        1.1718687610564604        1.7540265562578505        2.0000000000000004       0.68914400819031352        0.0000000000000000        0.0000000000000000        0.0000000000000000       0.69685725590906333        0.0000000000000000        0.0000000000000000        0.0000000000000000     
 energy%EnonSCC  -4.2166096842814520      atom..  -3.4410228625139814      -0.39391826793135415      -0.38166855383611636     
    3   -0.42000086E+01   -0.24536982E-02    0.47153917E-02
 qOutput   1.6882066486437692        1.1721029729081587        1.7541056133088897        2.0000000000000004       0.68907771205265755        0.0000000000000000        0.0000000000000000        0.0000000000000000       0.69650705308652228        0.0000000000000000        0.0000000000000000        0.0000000000000000     
 energy%EnonSCC  -4.2166327702774096      atom..  -3.4411859538484255      -0.39389428282894490      -0.38155253360003893     
    4   -0.42000087E+01   -0.15680814E-06    0.28934145E-02
 qOutput   1.6881911614478398        1.1721176893565861        1.7541110994705906        2.0000000000000004       0.68944602317224979        0.0000000000000000        0.0000000000000000        0.0000000000000000       0.69613402655273671        0.0000000000000000        0.0000000000000000        0.0000000000000000     
 energy%EnonSCC  -4.2166342021971372      atom..  -3.4411820257776364      -0.39402232227731282      -0.38142985414218789     
    5   -0.42000088E+01   -0.12910772E-06    0.24344064E-04
 qOutput   1.6881922905930771        1.1721201190950068        1.7541119180803997        2.0000000000000004       0.68944434895074680        0.0000000000000000        0.0000000000000000        0.0000000000000000       0.69613132328077199        0.0000000000000000        0.0000000000000000        0.0000000000000000     
 energy%EnonSCC  -4.2166344406475247      atom..  -3.4411837548159134      -0.39402173064847651      -0.38142895518313513     
    6   -0.42000088E+01   -0.49427129E-11    0.35222825E-07
 qOutput   1.6881922889606058        1.1721201156028354        1.7541119169040646        1.9999999999999996       0.68944435151964334        0.0000000000000000        0.0000000000000000        0.0000000000000000       0.69613132701285307        0.0000000000000000        0.0000000000000000        0.0000000000000000     
 energy%EnonSCC  -4.2166344403047598      atom..  -3.4411837523246267      -0.39402173155533898      -0.38142895642479424     
    7   -0.42000088E+01    0.17763568E-14    0.32862602E-13
>> Charges saved for restart in charges.bin

Total Energy:                       -4.0637330999 H         -110.5798 eV
Extrapolated to 0:                  -4.0637330999 H         -110.5798 eV
Total Mermin free energy:           -4.0637330999 H         -110.5798 eV
Force related energy:               -4.0637330999 H         -110.5798 eV

--------------------------------------------------------------------------------
DFTB+ running times                          cpu [s]             wall clock [s]
--------------------------------------------------------------------------------
Pre-SCC initialisation                 +     0.18  ( 23.0%)      0.18  ( 29.7%)
SCC                                    +     0.46  ( 60.7%)      0.32  ( 53.9%)
Post-SCC processing                    +     0.12  ( 15.7%)      0.09  ( 15.3%)
--------------------------------------------------------------------------------
Missing                                +     0.00  (  0.5%)      0.01  (  1.0%)
Total                                  =     0.76  (100.0%)      0.60  (100.0%)
--------------------------------------------------------------------------------
