|===============================================================================
|
|  DFTB+ development version (commit: e9f7d9c, base: 18.2)
|
|  Copyright (C) 2006 - 2019  DFTB+ developers group
|
|===============================================================================
|
|  When publishing results obtained with DFTB+, please cite the following
|  reference:
|
|  * B. Aradi, B. Hourahine and T. Frauenheim,
|    DFTB+, a Sparse Matrix-Based Implementation of the DFTB Method,
|    J. Phys. Chem. A, 111 5678 (2007).  [doi: 10.1021/jp070186p]
|
|  You should also cite additional publications crediting the parametrization
|  data you use. Please consult the documentation of the SK-files for the
|  references.
|
|===============================================================================

Reading input file 'dftb_in.hsd'
Parser version: 7

--------------------------------------------------------------------------------
***  Converting input from version  5 to version  7 ...
WARNING!
-> Keyword renamed to 'Solver'.
Path: dftbplusinput/Hamiltonian/DFTB/Eigensolver
Line: 17-17 (File: dftb_in.hsd)

***  Done.

Reading SK-files:
Done.
WARNING!
-> Settings will be read but ignored (compiled without MPI support)
Path: dftbplusinput/Parallel
Line: 35-37 (File: dftb_in.hsd)



Processed input in HSD format written to 'dftb_pin.hsd'

Starting initialization...
--------------------------------------------------------------------------------
OpenMP threads:              4
Chosen random seed:          1195362147
Mode:                        Static calculation
Self consistent charges:     Yes
SCC-tolerance:                 0.100000E-07
Max. scc iterations:                    100
Shell resolved Hubbard:      No
Spin polarisation:           No
Nr. of up electrons:             4.000000
Nr. of down electrons:           4.000000
Periodic boundaries:         No
Electronic solver:           Divide and Conquer
Mixer:                       Broyden mixer
Mixing parameter:                  0.200000
Maximal SCC-cycles:                     100
Nr. of chrg. vec. in memory:              0
Electronic temperature:        0.100000E-07 H      0.272114E-06 eV
Initial charges:             Set automatically (system chrg:   0.000E+00)
Included shells:             C:  s, p
                             H:  s
Extra options:
                             Mulliken analysis
                             Force calculation
Force type                   original

--------------------------------------------------------------------------------

***  Geometry step: 0

 iSCC Total electronic   Diff electronic      SCC error    
 qOutput   1.3103800877619427        1.0175415972100061        1.0255457708219993        1.0050400039103569       0.90908383112411384        0.0000000000000000        0.0000000000000000        0.0000000000000000       0.90528000517202922        0.0000000000000000        0.0000000000000000        0.0000000000000000       0.91532235047478305        0.0000000000000000        0.0000000000000000        0.0000000000000000       0.91180635352477002        0.0000000000000000        0.0000000000000000        0.0000000000000000     
 energy%EnonSCC  -3.2336138828164147      atom..  -1.8144379765231942      -0.35615698864849965      -0.35507169073844652      -0.35489498535696878      -0.35305224154930515     
    1   -0.32321676E+01    0.00000000E+00    0.35850746E+00
 qOutput   1.3074396197901796        1.0141108676839756        1.0220999008140086        1.0017077755241297       0.91230684732719958        0.0000000000000000        0.0000000000000000        0.0000000000000000       0.90864765949710957        0.0000000000000000        0.0000000000000000        0.0000000000000000       0.91851648966482058        0.0000000000000000        0.0000000000000000        0.0000000000000000       0.91517083969857815        0.0000000000000000        0.0000000000000000        0.0000000000000000     
 energy%EnonSCC  -3.2336032781923767      atom..  -1.8111856516055862      -0.35695281479168822      -0.35591257345162486      -0.35567141699913463      -0.35388082134434251     
    2   -0.32322611E+01   -0.93487283E-04    0.27365667E+00
 qOutput   1.2979304920146451        1.0030234082078491        1.0110077010568992       0.99096336944891750       0.92273699691022770        0.0000000000000000        0.0000000000000000        0.0000000000000000       0.91954722095722341        0.0000000000000000        0.0000000000000000        0.0000000000000000       0.92879992673460465        0.0000000000000000        0.0000000000000000        0.0000000000000000       0.92599088466963164        0.0000000000000000        0.0000000000000000        0.0000000000000000     
 energy%EnonSCC  -3.2334244614487759      atom..  -1.8006172703971779      -0.35951033710574798      -0.35861467419852217      -0.35815446731771278      -0.35652771242961512     
    3   -0.32323916E+01   -0.13054675E-03    0.40488358E-03
 qOutput   1.2979308234392548        1.0030080026364516        1.0110260864733445       0.99096502425033473       0.92275809008582999        0.0000000000000000        0.0000000000000000        0.0000000000000000       0.91956901386707435        0.0000000000000000        0.0000000000000000        0.0000000000000000       0.92878137591501597        0.0000000000000000        0.0000000000000000        0.0000000000000000       0.92596158333269907        0.0000000000000000        0.0000000000000000        0.0000000000000000     
 energy%EnonSCC  -3.2334244838070996      atom..  -1.8006183471166706      -0.35951535611256719      -0.35861982900282047      -0.35815010400413894      -0.35652084757090230     
    4   -0.32323916E+01   -0.44253294E-08    0.29217107E-03
 qOutput   1.2979306762962797        1.0029654621276753        1.0110743326060634       0.99096819529809999       0.92281619603183240        0.0000000000000000        0.0000000000000000        0.0000000000000000       0.91962858454091567        0.0000000000000000        0.0000000000000000        0.0000000000000000       0.92873235865328885        0.0000000000000000        0.0000000000000000        0.0000000000000000       0.92588419444584646        0.0000000000000000        0.0000000000000000        0.0000000000000000     
 energy%EnonSCC  -3.2334245072532126      atom..  -1.8006200820047902      -0.35952918876110584      -0.35863393053976211      -0.35813857923834036      -0.35650272670921407     
    5   -0.32323916E+01   -0.50096127E-08    0.31901913E-05
 qOutput   1.2979306760103315        1.0029657262157594        1.0110743741506829       0.99096789167441068       0.92281689267690226        0.0000000000000000        0.0000000000000000        0.0000000000000000       0.91962796587553908        0.0000000000000000        0.0000000000000000        0.0000000000000000       0.92873164683903853        0.0000000000000000        0.0000000000000000        0.0000000000000000       0.92588482655733806        0.0000000000000000        0.0000000000000000        0.0000000000000000     
 energy%EnonSCC  -3.2334245072700556      atom..  -1.8006200819078835      -0.35952935586709422      -0.35863378325995698      -0.35813840982926282      -0.35650287640585809     
    6   -0.32323916E+01   -0.58930638E-12    0.35945070E-07
 qOutput   1.2979306756524942        1.0029657287368734        1.0110743741483290       0.99096788794496204       0.92281690062354194        0.0000000000000000        0.0000000000000000        0.0000000000000000       0.91962795946489395        0.0000000000000000        0.0000000000000000        0.0000000000000000       0.92873163942779535        0.0000000000000000        0.0000000000000000        0.0000000000000000       0.92588483400111254        0.0000000000000000        0.0000000000000000        0.0000000000000000     
 energy%EnonSCC  -3.2334245072594472      atom..  -1.8006200815096101      -0.35952935777502565      -0.35863378173742261      -0.35813840806620767      -0.35650287817118087     
    7   -0.32323916E+01   -0.88817842E-15    0.40194170E-09
>> Charges saved for restart in charges.bin

Total Energy:                       -3.2237327813 H          -87.7222 eV
Extrapolated to 0:                  -3.2237327813 H          -87.7222 eV
Total Mermin free energy:           -3.2237327813 H          -87.7222 eV
Force related energy:               -3.2237327813 H          -87.7222 eV

--------------------------------------------------------------------------------
DFTB+ running times                          cpu [s]             wall clock [s]
--------------------------------------------------------------------------------
Global initialisation                  +     0.02  (  1.1%)      0.00  (  1.1%)
Pre-SCC initialisation                 +     0.37  ( 26.1%)      0.12  ( 26.5%)
SCC                                    +     0.81  ( 57.2%)      0.27  ( 57.6%)
Post-SCC processing                    +     0.22  ( 15.3%)      0.07  ( 14.4%)
--------------------------------------------------------------------------------
Missing                                +     0.00  (  0.3%)      0.00  (  0.4%)
Total                                  =     1.41  (100.0%)      0.47  (100.0%)
--------------------------------------------------------------------------------
