|===============================================================================
|
|  DFTB+ development version (commit: e9f7d9c, base: 18.2)
|
|  Copyright (C) 2006 - 2019  DFTB+ developers group
|
|===============================================================================
|
|  When publishing results obtained with DFTB+, please cite the following
|  reference:
|
|  * B. Aradi, B. Hourahine and T. Frauenheim,
|    DFTB+, a Sparse Matrix-Based Implementation of the DFTB Method,
|    J. Phys. Chem. A, 111 5678 (2007).  [doi: 10.1021/jp070186p]
|
|  You should also cite additional publications crediting the parametrization
|  data you use. Please consult the documentation of the SK-files for the
|  references.
|
|===============================================================================

Reading input file 'dftb_in.hsd'
Parser version: 7

--------------------------------------------------------------------------------
***  Converting input from version  5 to version  7 ...
WARNING!
-> Keyword renamed to 'Solver'.
Path: dftbplusinput/Hamiltonian/DFTB/Eigensolver
Line: 20-20 (File: dftb_in.hsd)

***  Done.

Reading SK-files:
Done.
WARNING!
-> Settings will be read but ignored (compiled without MPI support)
Path: dftbplusinput/Parallel
Line: 53-55 (File: dftb_in.hsd)



Processed input in HSD format written to 'dftb_pin.hsd'

Starting initialization...
--------------------------------------------------------------------------------
OpenMP threads:              4
Chosen random seed:          99165416
Mode:                        Static calculation
Self consistent charges:     Yes
SCC-tolerance:                 0.100000E-07
Max. scc iterations:                    100
Shell resolved Hubbard:      No
Spin polarisation:           No
Nr. of up electrons:             4.000000
Nr. of down electrons:           4.000000
Periodic boundaries:         No
Electronic solver:           Divide and Conquer
Mixer:                       Broyden mixer
Mixing parameter:                  0.200000
Maximal SCC-cycles:                     100
Nr. of chrg. vec. in memory:              0
Electronic temperature:        0.100000E-07 H      0.272114E-06 eV
Initial charges:             Set automatically (system chrg:   0.000E+00)
Included shells:             H:  s
                             C:  s, p
Extra options:
                             Mulliken analysis
                             Force calculation
Force type                   original

--------------------------------------------------------------------------------

***  Geometry step: 0

 iSCC Total electronic   Diff electronic      SCC error    
 qOutput  0.58574166388529947        0.0000000000000000        0.0000000000000000        0.0000000000000000       0.86956957468684504        0.0000000000000000        0.0000000000000000        0.0000000000000000       0.94861395711280572        0.0000000000000000        0.0000000000000000        0.0000000000000000       0.83575358794783650        0.0000000000000000        0.0000000000000000        0.0000000000000000        1.8491237306938637        1.1417990384601271       0.89394999210368797       0.87544845510953428     
 energy%EnonSCC  -2.7374816771992512      atom.. -0.26534447058503818      -0.25135059422007294      -0.26891404455019363      -0.24745822599661182       -1.7044143418473348     
    1   -0.26969699E+01    0.00000000E+00    0.76032122E+00
 qOutput  0.58986342620534293        0.0000000000000000        0.0000000000000000        0.0000000000000000        1.0233398487810623        0.0000000000000000        0.0000000000000000        0.0000000000000000        1.0819113380579748        0.0000000000000000        0.0000000000000000        0.0000000000000000       0.96519953966824679        0.0000000000000000        0.0000000000000000        0.0000000000000000        1.8468479407537997       0.97975292122003532       0.77543427186907643       0.73765071344446043     
 energy%EnonSCC  -2.7328829620018089      atom.. -0.26706656864413952      -0.28270236862825299      -0.29434802655385062      -0.27343830754547749       -1.6153276906300886     
    2   -0.27235754E+01   -0.26605532E-01    0.32728491E+00
 qOutput  0.59715882615759253        0.0000000000000000        0.0000000000000000        0.0000000000000000        1.0504326699798332        0.0000000000000000        0.0000000000000000        0.0000000000000000        1.0923530498358329        0.0000000000000000        0.0000000000000000        0.0000000000000000        1.0009070439813059        0.0000000000000000        0.0000000000000000        0.0000000000000000        1.8452745652548919       0.95528442151871418       0.74544299958317595       0.71314642368865711     
 energy%EnonSCC  -2.7308641267865625      atom.. -0.26976034626347589      -0.28778181270484066      -0.29584538264842603      -0.28008179860914273       -1.5973947865606775     
    3   -0.27245154E+01   -0.93991309E-03    0.23653002E+00
 qOutput  0.61753466348766484        0.0000000000000000        0.0000000000000000        0.0000000000000000        1.0457523935019151        0.0000000000000000        0.0000000000000000        0.0000000000000000        1.0576332384750500        0.0000000000000000        0.0000000000000000        0.0000000000000000        1.0251671565440337        0.0000000000000000        0.0000000000000000        0.0000000000000000        1.8419364657420887       0.97005972970833243       0.72760249295582691       0.71431385958509153     
 energy%EnonSCC  -2.7302049401981510      atom.. -0.27695196554316065      -0.28608356740142799      -0.28819985295460154      -0.28386963916922886       -1.5950999151297318     
    4   -0.27246821E+01   -0.16674449E-03    0.31921221E-01
 qOutput  0.61918169333457274        0.0000000000000000        0.0000000000000000        0.0000000000000000        1.0430222849579029        0.0000000000000000        0.0000000000000000        0.0000000000000000        1.0678504823985966        0.0000000000000000        0.0000000000000000        0.0000000000000000        1.0106477745096774        0.0000000000000000        0.0000000000000000        0.0000000000000000        1.8417751113067806       0.96616838503273739       0.73604310807759721       0.71531116038213582     
 energy%EnonSCC  -2.7305308658212972      atom.. -0.27745093605589360      -0.28545286201423647      -0.29022321487632408      -0.28097791946491973       -1.5964259334099236     
    5   -0.27247300E+01   -0.47923016E-04    0.39557551E-02
 qOutput  0.61933705472045042        0.0000000000000000        0.0000000000000000        0.0000000000000000        1.0438838999718769        0.0000000000000000        0.0000000000000000        0.0000000000000000        1.0691044153419915        0.0000000000000000        0.0000000000000000        0.0000000000000000        1.0110439854767974        0.0000000000000000        0.0000000000000000        0.0000000000000000        1.8417403515355795       0.96490399849110642       0.73551885470494938       0.71446743975724880     
 energy%EnonSCC  -2.7304650891613216      atom.. -0.27750465674108882      -0.28561462561765111      -0.29045848084875536      -0.28104343565540918       -1.5958438902984171     
    6   -0.27247309E+01   -0.83031360E-06    0.85605209E-04
 qOutput  0.61933672422386099        0.0000000000000000        0.0000000000000000        0.0000000000000000        1.0438619948001961        0.0000000000000000        0.0000000000000000        0.0000000000000000        1.0691442954791139        0.0000000000000000        0.0000000000000000        0.0000000000000000        1.0110919795776558        0.0000000000000000        0.0000000000000000        0.0000000000000000        1.8417402900503710       0.96487367690631487       0.73548344218279382       0.71446759677969263     
 energy%EnonSCC  -2.7304634103769123      atom.. -0.27750443437570793      -0.28561024295441695      -0.29046619739984642      -0.28105263938200314       -1.5958298962649380     
    7   -0.27247309E+01   -0.55520788E-09    0.49063665E-04
 qOutput  0.61933687317061081        0.0000000000000000        0.0000000000000000        0.0000000000000000        1.0438399004243319        0.0000000000000000        0.0000000000000000        0.0000000000000000        1.0691389894478052        0.0000000000000000        0.0000000000000000        0.0000000000000000        1.0110830512064495        0.0000000000000000        0.0000000000000000        0.0000000000000000        1.8417405027859730       0.96488590634011506       0.73549183740862412       0.71448293921609329     
 energy%EnonSCC  -2.7304644123509556      atom.. -0.27750439900246482      -0.28560587449297115      -0.29046527641832387      -0.28105093798883002       -1.5958379244483658     
    8   -0.27247309E+01   -0.16899460E-09    0.64409417E-07
 qOutput  0.61933687194923204        0.0000000000000000        0.0000000000000000        0.0000000000000000        1.0438398741517083        0.0000000000000000        0.0000000000000000        0.0000000000000000        1.0691389865056145        0.0000000000000000        0.0000000000000000        0.0000000000000000        1.0110830369664527        0.0000000000000000        0.0000000000000000        0.0000000000000000        1.8417405032812932       0.96488591966484361       0.73549184985952643       0.71448295762133163     
 energy%EnonSCC  -2.7304644136515233      atom.. -0.27750439846404867      -0.28560586934959475      -0.29046527605171368      -0.28105093532669723       -1.5958379344594689     
    9   -0.27247309E+01   -0.88817842E-15    0.21794122E-10
>> Charges saved for restart in charges.bin

Total Energy:                       -2.7248006864 H          -74.1456 eV
Extrapolated to 0:                  -2.7248006864 H          -74.1456 eV
Total Mermin free energy:           -2.7248006864 H          -74.1456 eV
Force related energy:               -2.7248006864 H          -74.1456 eV

--------------------------------------------------------------------------------
DFTB+ running times                          cpu [s]             wall clock [s]
--------------------------------------------------------------------------------
Global initialisation                  +     0.02  (  1.4%)      0.01  (  1.9%)
Pre-SCC initialisation                 +     0.25  ( 17.9%)      0.06  ( 16.9%)
SCC                                    +     0.87  ( 62.5%)      0.23  ( 63.8%)
Post-SCC processing                    +     0.24  ( 17.6%)      0.06  ( 16.9%)
--------------------------------------------------------------------------------
Missing                                +     0.01  (  0.6%)      0.00  (  0.5%)
Total                                  =     1.39  (100.0%)      0.37  (100.0%)
--------------------------------------------------------------------------------
