|===============================================================================
|
|  DFTB+ development version (commit: e9f7d9c, base: 18.2)
|
|  Copyright (C) 2006 - 2019  DFTB+ developers group
|
|===============================================================================
|
|  When publishing results obtained with DFTB+, please cite the following
|  reference:
|
|  * B. Aradi, B. Hourahine and T. Frauenheim,
|    DFTB+, a Sparse Matrix-Based Implementation of the DFTB Method,
|    J. Phys. Chem. A, 111 5678 (2007).  [doi: 10.1021/jp070186p]
|
|  You should also cite additional publications crediting the parametrization
|  data you use. Please consult the documentation of the SK-files for the
|  references.
|
|===============================================================================

Reading input file 'dftb_in.hsd'
Parser version: 7

--------------------------------------------------------------------------------
***  Converting input from version  5 to version  7 ...
WARNING!
-> Keyword renamed to 'Solver'.
Path: dftbplusinput/Hamiltonian/DFTB/Eigensolver
Line: 17-17 (File: dftb_in.hsd)

***  Done.

Reading SK-files:
Done.
WARNING!
-> Settings will be read but ignored (compiled without MPI support)
Path: dftbplusinput/Parallel
Line: 35-37 (File: dftb_in.hsd)



Processed input in HSD format written to 'dftb_pin.hsd'

Starting initialization...
--------------------------------------------------------------------------------
OpenMP threads:              4
Chosen random seed:          371542584
Mode:                        Static calculation
Self consistent charges:     Yes
SCC-tolerance:                 0.100000E-07
Max. scc iterations:                    100
Shell resolved Hubbard:      No
Spin polarisation:           No
Nr. of up electrons:             4.000000
Nr. of down electrons:           4.000000
Periodic boundaries:         No
Electronic solver:           Divide and Conquer
Mixer:                       Broyden mixer
Mixing parameter:                  0.200000
Maximal SCC-cycles:                     100
Nr. of chrg. vec. in memory:              0
Electronic temperature:        0.100000E-07 H      0.272114E-06 eV
Initial charges:             Set automatically (system chrg:   0.000E+00)
Included shells:             H:  s
                             O:  s, p
Extra options:
                             Mulliken analysis
                             Force calculation
Force type                   original

--------------------------------------------------------------------------------

***  Geometry step: 0

 iSCC Total electronic   Diff electronic      SCC error    
 qOutput  0.62880275533981322        0.0000000000000000        0.0000000000000000        0.0000000000000000       0.62691911037894232        0.0000000000000000        0.0000000000000000        0.0000000000000000        1.7222103767748855        1.2441722897340228        1.7778954677723389        2.0000000000000004     
 energy%EnonSCC  -4.2201797267811658      atom.. -0.37167739868487376      -0.35716902363934044       -3.4913333044569517     
    1   -0.41957636E+01    0.00000000E+00    0.74427813E+00
 qOutput  0.64315062374005794        0.0000000000000000        0.0000000000000000        0.0000000000000000       0.64355497177838550        0.0000000000000000        0.0000000000000000        0.0000000000000000        1.7140919637855763        1.2269187722027217        1.7722836684932628        2.0000000000000004     
 energy%EnonSCC  -4.2199755481995647      atom.. -0.37714290871047274      -0.36322286105759122       -3.4796097784315010     
    2   -0.41975549E+01   -0.17912183E-02    0.56443878E+00
 qOutput  0.68914400819031263        0.0000000000000000        0.0000000000000000        0.0000000000000000       0.69685725590906300        0.0000000000000000        0.0000000000000000        0.0000000000000000        1.6881034185863122        1.1718687610564591        1.7540265562578505        2.0000000000000004     
 energy%EnonSCC  -4.2166096842814493      atom.. -0.39391826793135359      -0.38166855383611636       -3.4410228625139796     
    3   -0.42000086E+01   -0.24536982E-02    0.47153917E-02
 qOutput  0.68907771205265866        0.0000000000000000        0.0000000000000000        0.0000000000000000       0.69650705308652405        0.0000000000000000        0.0000000000000000        0.0000000000000000        1.6882066486437712        1.1721029729081598        1.7541056133088913        2.0000000000000004     
 energy%EnonSCC  -4.2166327702774149      atom.. -0.39389428282894545      -0.38155253360004004       -3.4411859538484291     
    4   -0.42000087E+01   -0.15680815E-06    0.28934145E-02
 qOutput  0.68944602317225046        0.0000000000000000        0.0000000000000000        0.0000000000000000       0.69613402655273782        0.0000000000000000        0.0000000000000000        0.0000000000000000        1.6881911614478393        1.1721176893565852        1.7541110994705900        2.0000000000000004     
 energy%EnonSCC  -4.2166342021971372      atom.. -0.39402232227731315      -0.38142985414218844       -3.4411820257776355     
    5   -0.42000088E+01   -0.12910771E-06    0.24344064E-04
 qOutput  0.68944434895074647        0.0000000000000000        0.0000000000000000        0.0000000000000000       0.69613132328077265        0.0000000000000000        0.0000000000000000        0.0000000000000000        1.6881922905930768        1.1721201190950068        1.7541119180803983        2.0000000000000004     
 energy%EnonSCC  -4.2166344406475247      atom.. -0.39402173064847645      -0.38142895518313558       -3.4411837548159125     
    6   -0.42000088E+01   -0.49427129E-11    0.35222825E-07
 qOutput  0.68944435151964234        0.0000000000000000        0.0000000000000000        0.0000000000000000       0.69613132701285285        0.0000000000000000        0.0000000000000000        0.0000000000000000        1.6881922889606078        1.1721201156028340        1.7541119169040642        2.0000000000000004     
 energy%EnonSCC  -4.2166344403047606      atom.. -0.39402173155533854      -0.38142895642479435       -3.4411837523246276     
    7   -0.42000088E+01    0.88817842E-15    0.29309888E-13
>> Charges saved for restart in charges.bin

Total Energy:                       -4.0637330999 H         -110.5798 eV
Extrapolated to 0:                  -4.0637330999 H         -110.5798 eV
Total Mermin free energy:           -4.0637330999 H         -110.5798 eV
Force related energy:               -4.0637330999 H         -110.5798 eV

--------------------------------------------------------------------------------
DFTB+ running times                          cpu [s]             wall clock [s]
--------------------------------------------------------------------------------
Pre-SCC initialisation                 +     0.38  ( 22.2%)      0.13  ( 22.3%)
SCC                                    +     1.07  ( 61.8%)      0.37  ( 61.7%)
Post-SCC processing                    +     0.23  ( 13.2%)      0.08  ( 13.2%)
--------------------------------------------------------------------------------
Missing                                +     0.05  (  2.8%)      0.02  (  2.9%)
Total                                  =     1.73  (100.0%)      0.59  (100.0%)
--------------------------------------------------------------------------------
