|===============================================================================
|
|  DFTB+ development version (commit: e9f7d9c, base: 18.2)
|
|  Copyright (C) 2006 - 2019  DFTB+ developers group
|
|===============================================================================
|
|  When publishing results obtained with DFTB+, please cite the following
|  reference:
|
|  * B. Aradi, B. Hourahine and T. Frauenheim,
|    DFTB+, a Sparse Matrix-Based Implementation of the DFTB Method,
|    J. Phys. Chem. A, 111 5678 (2007).  [doi: 10.1021/jp070186p]
|
|  You should also cite additional publications crediting the parametrization
|  data you use. Please consult the documentation of the SK-files for the
|  references.
|
|===============================================================================

Reading input file 'dftb_in.hsd'
Parser version: 7

--------------------------------------------------------------------------------
***  Converting input from version  5 to version  7 ...
WARNING!
-> Keyword renamed to 'Solver'.
Path: dftbplusinput/Hamiltonian/DFTB/Eigensolver
Line: 17-17 (File: dftb_in.hsd)

***  Done.

Reading SK-files:
Done.
WARNING!
-> Settings will be read but ignored (compiled without MPI support)
Path: dftbplusinput/Parallel
Line: 35-37 (File: dftb_in.hsd)



Processed input in HSD format written to 'dftb_pin.hsd'

Starting initialization...
--------------------------------------------------------------------------------
OpenMP threads:              4
Chosen random seed:          868297275
Mode:                        Static calculation
Self consistent charges:     Yes
SCC-tolerance:                 0.100000E-07
Max. scc iterations:                    100
Shell resolved Hubbard:      No
Spin polarisation:           No
Nr. of up electrons:             4.000000
Nr. of down electrons:           4.000000
Periodic boundaries:         No
Electronic solver:           Divide and Conquer
Mixer:                       Broyden mixer
Mixing parameter:                  0.200000
Maximal SCC-cycles:                     100
Nr. of chrg. vec. in memory:              0
Electronic temperature:        0.100000E-07 H      0.272114E-06 eV
Initial charges:             Set automatically (system chrg:   0.000E+00)
Included shells:             O:  s, p
                             H:  s
Extra options:
                             Mulliken analysis
                             Force calculation
Force type                   original

--------------------------------------------------------------------------------

***  Geometry step: 0

 iSCC Total electronic   Diff electronic      SCC error    
 qOutput   1.7757695812669905        1.2705933706790027        1.7279332736976765        2.0000000000000004       0.61034271240689442        0.0000000000000000        0.0000000000000000        0.0000000000000000       0.61536106194943907        0.0000000000000000        0.0000000000000000        0.0000000000000000     
 energy%EnonSCC  -4.1596678033074674      atom..  -3.4943963386055135      -0.31749814294012890      -0.34777332176182513     
    1   -0.41273714E+01    0.00000000E+00    0.77429623E+00
 qOutput   1.7670399496608920        1.2439090719589265        1.7167220056878161        2.0000000000000004       0.63759422618534767        0.0000000000000000        0.0000000000000000        0.0000000000000000       0.63473474650701978        0.0000000000000000        0.0000000000000000        0.0000000000000000     
 energy%EnonSCC  -4.1592728209483569      atom..  -3.4780679674823651      -0.32643073159746810      -0.35477412186852325     
    2   -0.41307904E+01   -0.34190132E-02    0.57281178E+00
 qOutput   1.7416836666270306        1.1659482561698105        1.6828075068244106        2.0000000000000004       0.71785437056435264        0.0000000000000000        0.0000000000000000        0.0000000000000000       0.69170619981439518        0.0000000000000000        0.0000000000000000        0.0000000000000000     
 energy%EnonSCC  -4.1536434048509534      atom..  -3.4284110097775677      -0.35093846243334526      -0.37429393264004057     
    3   -0.41349722E+01   -0.41818009E-02    0.14293514E-01
 qOutput   1.7419978176919544        1.1671803759815156        1.6833576773888987        2.0000000000000004       0.71587223120997334        0.0000000000000000        0.0000000000000000        0.0000000000000000       0.69159189772765939        0.0000000000000000        0.0000000000000000        0.0000000000000000     
 energy%EnonSCC  -4.1537844275065563      atom..  -3.4291649795630801      -0.35037243703336785      -0.37424701091010848     
    4   -0.41349752E+01   -0.29894258E-05    0.90548635E-02
 qOutput   1.7418102787217764        1.1670352384887024        1.6832921486568613        1.9999999999999996       0.71485962955892490        0.0000000000000000        0.0000000000000000        0.0000000000000000       0.69300270457373747        0.0000000000000000        0.0000000000000000        0.0000000000000000     
 energy%EnonSCC  -4.1537671886618233      atom..  -3.4289804515008253      -0.35009157588502937      -0.37469516127596891     
    5   -0.41349764E+01   -0.12783917E-05    0.16328287E-03
 qOutput   1.7418173944790254        1.1670591148758762        1.6833028066471947        2.0000000000000009       0.71482968223038323        0.0000000000000000        0.0000000000000000        0.0000000000000000       0.69299100176751860        0.0000000000000000        0.0000000000000000        0.0000000000000000     
 energy%EnonSCC  -4.1537698898067514      atom..  -3.4289956998824205      -0.35008293746520458      -0.37469125245912605     
    6   -0.41349764E+01   -0.43071413E-09    0.11520768E-05
 qOutput   1.7418173444243048        1.1670589492462062        1.6833027327094618        2.0000000000000022       0.71482988423074667        0.0000000000000000        0.0000000000000000        0.0000000000000000       0.69299108938928011        0.0000000000000000        0.0000000000000000        0.0000000000000000     
 energy%EnonSCC  -4.1537698710621935      atom..  -3.4289955936628518      -0.35008299578711827      -0.37469128161222393     
    7   -0.41349764E+01   -0.22204460E-13    0.28477221E-11
>> Charges saved for restart in charges.bin

Total Energy:                       -4.0709980147 H         -110.7775 eV
Extrapolated to 0:                  -4.0709980147 H         -110.7775 eV
Total Mermin free energy:           -4.0709980147 H         -110.7775 eV
Force related energy:               -4.0709980147 H         -110.7775 eV

--------------------------------------------------------------------------------
DFTB+ running times                          cpu [s]             wall clock [s]
--------------------------------------------------------------------------------
Global initialisation                  +     0.01  (  2.9%)      0.00  (  4.5%)
Pre-SCC initialisation                 +     0.24  ( 58.1%)      0.06  ( 57.1%)
SCC                                    +     0.16  ( 37.1%)      0.04  ( 36.6%)
--------------------------------------------------------------------------------
Missing                                +     0.01  (  1.9%)      0.00  (  1.8%)
Total                                  =     0.42  (100.0%)      0.11  (100.0%)
--------------------------------------------------------------------------------
