|===============================================================================
|
|  DFTB+ development version (commit: e9f7d9c, base: 18.2)
|
|  Copyright (C) 2006 - 2019  DFTB+ developers group
|
|===============================================================================
|
|  When publishing results obtained with DFTB+, please cite the following
|  reference:
|
|  * B. Aradi, B. Hourahine and T. Frauenheim,
|    DFTB+, a Sparse Matrix-Based Implementation of the DFTB Method,
|    J. Phys. Chem. A, 111 5678 (2007).  [doi: 10.1021/jp070186p]
|
|  You should also cite additional publications crediting the parametrization
|  data you use. Please consult the documentation of the SK-files for the
|  references.
|
|===============================================================================

Reading input file 'dftb_in.hsd'
Parser version: 7

--------------------------------------------------------------------------------
***  Converting input from version  5 to version  7 ...
WARNING!
-> Keyword renamed to 'Solver'.
Path: dftbplusinput/Hamiltonian/DFTB/Eigensolver
Line: 17-17 (File: dftb_in.hsd)

***  Done.

Reading SK-files:
Done.
WARNING!
-> Settings will be read but ignored (compiled without MPI support)
Path: dftbplusinput/Parallel
Line: 35-37 (File: dftb_in.hsd)



Processed input in HSD format written to 'dftb_pin.hsd'

Starting initialization...
--------------------------------------------------------------------------------
OpenMP threads:              4
Chosen random seed:          239120979
Mode:                        Static calculation
Self consistent charges:     Yes
SCC-tolerance:                 0.100000E-07
Max. scc iterations:                    100
Shell resolved Hubbard:      No
Spin polarisation:           No
Nr. of up electrons:             4.000000
Nr. of down electrons:           4.000000
Periodic boundaries:         No
Electronic solver:           Divide and Conquer
Mixer:                       Broyden mixer
Mixing parameter:                  0.200000
Maximal SCC-cycles:                     100
Nr. of chrg. vec. in memory:              0
Electronic temperature:        0.100000E-07 H      0.272114E-06 eV
Initial charges:             Set automatically (system chrg:   0.000E+00)
Included shells:             H:  s
                             C:  s, p
Extra options:
                             Mulliken analysis
                             Force calculation
Force type                   original

--------------------------------------------------------------------------------

***  Geometry step: 0

 iSCC Total electronic   Diff electronic      SCC error    
 qOutput  0.90608943133410713        0.0000000000000000        0.0000000000000000        0.0000000000000000       0.91000293714823122        0.0000000000000000        0.0000000000000000        0.0000000000000000       0.90897450509444877        0.0000000000000000        0.0000000000000000        0.0000000000000000       0.90942016344803789        0.0000000000000000        0.0000000000000000        0.0000000000000000        1.3032549966108733        1.0174227651250682        1.0297422989142104        1.0150929023250213     
 energy%EnonSCC  -3.2456215232781220      atom.. -0.35497426630526946      -0.35692490290166573      -0.35748248594495952      -0.35463797339801545       -1.8216018947282118     
    1   -0.32441945E+01    0.00000000E+00    0.36551296E+00
 qOutput  0.90931302624120836        0.0000000000000000        0.0000000000000000        0.0000000000000000       0.91304909942285339        0.0000000000000000        0.0000000000000000        0.0000000000000000       0.91200129050738465        0.0000000000000000        0.0000000000000000        0.0000000000000000       0.91260836712331250        0.0000000000000000        0.0000000000000000        0.0000000000000000        1.3004180784818411        1.0142686873921591        1.0264942664790635        1.0118471843521786     
 energy%EnonSCC  -3.2456117725409408      atom.. -0.35577691410082402      -0.35767198847422538      -0.35822692869754386      -0.35542398151586785       -1.8185119597524795     
    2   -0.32442805E+01   -0.86083892E-04    0.27992562E+00
 qOutput  0.91986125713314426        0.0000000000000000        0.0000000000000000        0.0000000000000000       0.92302450426057747        0.0000000000000000        0.0000000000000000        0.0000000000000000       0.92192690247761411        0.0000000000000000        0.0000000000000000        0.0000000000000000       0.92301843724620847        0.0000000000000000        0.0000000000000000        0.0000000000000000        1.2911170324698067        1.0039463477566433        1.0158695269041733        1.0012359917518325     
 energy%EnonSCC  -3.2454435829006867      atom.. -0.35838539555342974      -0.36010201398894576      -0.36065165408080668      -0.35797319541362582       -1.8083313238638787     
    3   -0.32444027E+01   -0.12214665E-03    0.30004254E-03
 qOutput  0.91985861152511816        0.0000000000000000        0.0000000000000000        0.0000000000000000       0.92302906856703959        0.0000000000000000        0.0000000000000000        0.0000000000000000       0.92194166214578077        0.0000000000000000        0.0000000000000000        0.0000000000000000       0.92299969782549696        0.0000000000000000        0.0000000000000000        0.0000000000000000        1.2911174414861470        1.0039425024981929        1.0158709909718837        1.0012400249803446     
 energy%EnonSCC  -3.2454435980775207      atom.. -0.35838472496414947      -0.36010310586675309      -0.36065518856366974      -0.35796871567358757       -1.8083318630093608     
    4   -0.32444027E+01   -0.13057413E-08    0.21964465E-03
 qOutput  0.91985185003926839        0.0000000000000000        0.0000000000000000        0.0000000000000000       0.92304301292896973        0.0000000000000000        0.0000000000000000        0.0000000000000000       0.92198453215074039        0.0000000000000000        0.0000000000000000        0.0000000000000000       0.92294764821890474        0.0000000000000000        0.0000000000000000        0.0000000000000000        1.2911177259454174        1.0039306442963409        1.0158740734946570        1.0012505129257050     
 energy%EnonSCC  -3.2454436138483600      atom.. -0.35838300741562334      -0.36010644427203486      -0.36066545757064655      -0.35795627634622629       -1.8083324282438289     
    5   -0.32444027E+01   -0.15714647E-08    0.28609227E-05
 qOutput  0.91985115882257140        0.0000000000000000        0.0000000000000000        0.0000000000000000       0.92304317205137698        0.0000000000000000        0.0000000000000000        0.0000000000000000       0.92198471739126497        0.0000000000000000        0.0000000000000000        0.0000000000000000       0.92294800287121492        0.0000000000000000        0.0000000000000000        0.0000000000000000        1.2911177294709890        1.0039307026885320        1.0158738781014747        1.0012506386025795     
 energy%EnonSCC  -3.2454436139031593      atom.. -0.35838284250667718      -0.36010648152378855      -0.36066550191648589      -0.35795635946507992       -1.8083324284911277     
    6   -0.32444027E+01   -0.22026825E-12    0.10209756E-07
 qOutput  0.91985115605757750        0.0000000000000000        0.0000000000000000        0.0000000000000000       0.92304317252444956        0.0000000000000000        0.0000000000000000        0.0000000000000000       0.92198471867495169        0.0000000000000000        0.0000000000000000        0.0000000000000000       0.92294800488494189        0.0000000000000000        0.0000000000000000        0.0000000000000000        1.2911177292643274        1.0039307029341724        1.0158738768223428        1.0012506388372384     
 energy%EnonSCC  -3.2454436138969021      atom.. -0.35838284184900010      -0.36010648163380182      -0.36066550222507693      -0.35795635994058927       -1.8083324282484337     
    7   -0.32444027E+01    0.13322676E-14    0.58043094E-08
>> Charges saved for restart in charges.bin

Total Energy:                       -3.2236189446 H          -87.7191 eV
Extrapolated to 0:                  -3.2236189446 H          -87.7191 eV
Total Mermin free energy:           -3.2236189446 H          -87.7191 eV
Force related energy:               -3.2236189446 H          -87.7191 eV

--------------------------------------------------------------------------------
DFTB+ running times                          cpu [s]             wall clock [s]
--------------------------------------------------------------------------------
Global initialisation                  +     0.01  (  0.8%)      0.00  (  1.1%)
Pre-SCC initialisation                 +     0.28  ( 18.4%)      0.10  ( 20.6%)
SCC                                    +     0.97  ( 62.9%)      0.29  ( 61.5%)
Post-SCC processing                    +     0.27  ( 17.4%)      0.08  ( 16.5%)
--------------------------------------------------------------------------------
Missing                                +     0.01  (  0.5%)      0.00  (  0.4%)
Total                                  =     1.54  (100.0%)      0.47  (100.0%)
--------------------------------------------------------------------------------
