 Fermi distribution function

Calculation with static geometry


********************************************************************************
 iSCC Total electronic   Diff electronic      SCC error    
    9   -0.27113165E+01   -0.31086245E-14    0.15767387E-11
********************************************************************************

 Total charge:    -0.00000000

 Atomic gross populations and charges (e)
 Atom       Population          Charge
    1       0.63024398      0.36975602
    2       1.02669738     -0.02669738
    3       1.06190239     -0.06190239
    4       1.05894338     -0.05894338
    5       4.22221287     -0.22221287


 Atomic net (on-site) populations and hybridisation ratios
 Atom       Population         Hybrid.
    1       0.25178068      0.74821932
    2       0.90915350      0.09084650
    3       0.96555749      0.03444251
    4       0.96394970      0.03605030
    5       3.82416729      0.04395818

COMPONENT = q

Eigenvalues (H) and fillings (e)
       1      -0.55781   2.00000
       2      -0.34554   2.00000
       3      -0.25711   2.00000
       4      -0.24551   2.00000
       5      -0.16590   0.00000
       6      -0.14490   0.00000
       7      -0.13739   0.00000
       8       0.65776   0.00000

Eigenvalues (eV) and fillings (e)
       1       -15.179   2.00000
       2        -9.403   2.00000
       3        -6.996   2.00000
       4        -6.681   2.00000
       5        -4.515   0.00000
       6        -3.943   0.00000
       7        -3.739   0.00000
       8        17.899   0.00000

Nr. of electrons (up):      8.00000000
Atom populations (up)
 Atom       Population
    1       0.63024398
    2       1.02669738
    3       1.06190239
    4       1.05894338
    5       4.22221287

l-shell populations (up)
 Atom Sh.   l       Population
    1   1   0       0.63024398
    2   1   0       1.02669738
    3   1   0       1.06190239
    4   1   0       1.05894338
    5   1   0       1.83760092
    5   2   1       2.38461195

Orbital populations (up)
 Atom Sh.   l   m       Population
    1   1   0   0       0.63024398
    2   1   0   0       1.02669738
    3   1   0   0       1.06190239
    4   1   0   0       1.05894338
    5   1   0   0       1.83760092
    5   2   1  -1       0.87815494
    5   2   1   0       0.69403830
    5   2   1   1       0.81241872

Fermi level:                        -0.2057052943 H           -5.5975 eV
Band energy:                        -2.8119237480 H          -76.5163 eV
TS:                                  0.0000000000 H            0.0000 eV
Band free energy (E-TS):            -2.8119237480 H          -76.5163 eV
Extrapolated E(0K):                 -2.8119237480 H          -76.5163 eV
Input / Output electrons (q):      8.00000000      8.00000000

Energy H0:                          -2.7158941867 H          -73.9032 eV
Energy SCC:                          0.0045777078 H            0.1246 eV
Total Electronic energy:            -2.7113164789 H          -73.7787 eV
Repulsive energy:                    0.0049345244 H            0.1343 eV
Dispersion energy:                   0.0000000000 H            0.0000 eV
Many-body dispersion energy:        -0.0001628099 H           -0.0044 eV
Total energy:                       -2.7065447643 H          -73.6488 eV
Total Mermin free energy:           -2.7065447643 H          -73.6488 eV

SCC converged

Total Forces
     -0.061390844280      0.006887508656      0.063660594914
      0.016559463963      0.007680572966     -0.049263709869
      0.021279497961     -0.028647350289     -0.028954769793
      0.046216960945      0.005408966631     -0.017407146007
     -0.022665078588      0.008670302036      0.031965030755

Maximal derivative component:        0.636606E-01 au

Dipole moment:   -0.25654450    0.08469806    0.19317313 au
Dipole moment:   -0.65207112    0.21528101    0.49099715 Debye


