 Fermi distribution function

Calculation with static geometry


********************************************************************************
 iSCC Total electronic   Diff electronic      SCC error    
    8   -0.32417743E+01   -0.35527137E-14    0.13626433E-10
********************************************************************************

 Total charge:    -0.00000000

 Atomic gross populations and charges (e)
 Atom       Population          Charge
    1       4.31882961     -0.31882961
    2       0.90485111      0.09514889
    3       0.95551374      0.04448626
    4       0.90077906      0.09922094
    5       0.92002648      0.07997352


 Atomic net (on-site) populations and hybridisation ratios
 Atom       Population         Hybrid.
    1       2.86151503      0.28462124
    2       0.57455520      0.42544480
    3       0.66000462      0.33999538
    4       0.56347942      0.43652058
    5       0.59893139      0.40106861

COMPONENT = q

Eigenvalues (H) and fillings (e)
       1      -0.57548   2.00000
       2      -0.35041   2.00000
       3      -0.33884   2.00000
       4      -0.31873   2.00000
       5       0.22779   0.00000
       6       0.37427   0.00000
       7       0.48471   0.00000
       8       0.67779   0.00000

Eigenvalues (eV) and fillings (e)
       1       -15.660   2.00000
       2        -9.535   2.00000
       3        -9.220   2.00000
       4        -8.673   2.00000
       5         6.199   0.00000
       6        10.184   0.00000
       7        13.190   0.00000
       8        18.444   0.00000

Nr. of electrons (up):      8.00000000
Atom populations (up)
 Atom       Population
    1       4.31882961
    2       0.90485111
    3       0.95551374
    4       0.90077906
    5       0.92002648

l-shell populations (up)
 Atom Sh.   l       Population
    1   1   0       1.29082420
    1   2   1       3.02800542
    2   1   0       0.90485111
    3   1   0       0.95551374
    4   1   0       0.90077906
    5   1   0       0.92002648

Orbital populations (up)
 Atom Sh.   l   m       Population
    1   1   0   0       1.29082420
    1   2   1  -1       1.02643934
    1   2   1   0       1.00946324
    1   2   1   1       0.99210284
    2   1   0   0       0.90485111
    3   1   0   0       0.95551374
    4   1   0   0       0.90077906
    5   1   0   0       0.92002648

Fermi level:                        -0.0454682858 H           -1.2373 eV
Band energy:                        -3.1669328002 H          -86.1766 eV
TS:                                  0.0000000000 H            0.0000 eV
Band free energy (E-TS):            -3.1669328002 H          -86.1766 eV
Extrapolated E(0K):                 -3.1669328002 H          -86.1766 eV
Input / Output electrons (q):      8.00000000      8.00000000

Energy H0:                          -3.2428637989 H          -88.2428 eV
Energy SCC:                          0.0010895035 H            0.0296 eV
Total Electronic energy:            -3.2417742954 H          -88.2132 eV
Repulsive energy:                    0.0298187701 H            0.8114 eV
Dispersion energy:                   0.0000000000 H            0.0000 eV
Many-body dispersion energy:        -0.0002454423 H           -0.0067 eV
Total energy:                       -3.2122009676 H          -87.4084 eV
Total Mermin free energy:           -3.2122009676 H          -87.4084 eV

SCC converged

Total Forces
     -0.032134919947     -0.094577440716     -0.030776353100
     -0.005805079656      0.022199688064     -0.006639348490
      0.012418590924      0.025366146454     -0.011492768183
      0.030016727251      0.036464545427      0.050262962730
     -0.004495318573      0.010547060771     -0.001354492957

Maximal derivative component:        0.945774E-01 au

Dipole moment:    0.00459809    0.01722959    0.00876543 au
Dipole moment:    0.01168718    0.04379324    0.02227951 Debye


