 Fermi distribution function

Calculation with static geometry


********************************************************************************
 iSCC Total electronic   Diff electronic      SCC error    
    8   -0.32123864E+01   -0.88817842E-15    0.14531487E-10
********************************************************************************

 Total charge:     0.00000000

 Atomic gross populations and charges (e)
 Atom       Population          Charge
    1       4.29048137     -0.29048137
    2       0.92313674      0.07686326
    3       0.93514239      0.06485761
    4       0.94203005      0.05796995
    5       0.90920945      0.09079055


 Atomic net (on-site) populations and hybridisation ratios
 Atom       Population         Hybrid.
    1       2.87631803      0.28092049
    2       0.60010281      0.39989719
    3       0.62938930      0.37061070
    4       0.63781484      0.36218516
    5       0.57879455      0.42120545

COMPONENT = q

Eigenvalues (H) and fillings (e)
       1      -0.57196   2.00000
       2      -0.34258   2.00000
       3      -0.33384   2.00000
       4      -0.32004   2.00000
       5       0.21607   0.00000
       6       0.30004   0.00000
       7       0.37649   0.00000
       8       0.50927   0.00000

Eigenvalues (eV) and fillings (e)
       1       -15.564   2.00000
       2        -9.322   2.00000
       3        -9.084   2.00000
       4        -8.709   2.00000
       5         5.880   0.00000
       6         8.164   0.00000
       7        10.245   0.00000
       8        13.858   0.00000

Nr. of electrons (up):      8.00000000
Atom populations (up)
 Atom       Population
    1       4.29048137
    2       0.92313674
    3       0.93514239
    4       0.94203005
    5       0.90920945

l-shell populations (up)
 Atom Sh.   l       Population
    1   1   0       1.30898725
    1   2   1       2.98149412
    2   1   0       0.92313674
    3   1   0       0.93514239
    4   1   0       0.94203005
    5   1   0       0.90920945

Orbital populations (up)
 Atom Sh.   l   m       Population
    1   1   0   0       1.30898725
    1   2   1  -1       1.00107158
    1   2   1   0       0.97802076
    1   2   1   1       1.00240179
    2   1   0   0       0.92313674
    3   1   0   0       0.93514239
    4   1   0   0       0.94203005
    5   1   0   0       0.90920945

Fermi level:                        -0.0519836426 H           -1.4145 eV
Band energy:                        -3.1368385379 H          -85.3577 eV
TS:                                  0.0000000000 H            0.0000 eV
Band free energy (E-TS):            -3.1368385379 H          -85.3577 eV
Extrapolated E(0K):                 -3.1368385379 H          -85.3577 eV
Input / Output electrons (q):      8.00000000      8.00000000

Energy H0:                          -3.2134199945 H          -87.4416 eV
Energy SCC:                          0.0010336236 H            0.0281 eV
Total Electronic energy:            -3.2123863710 H          -87.4135 eV
Repulsive energy:                   -0.0049057818 H           -0.1335 eV
Dispersion energy:                   0.0000000000 H            0.0000 eV
Many-body dispersion energy:        -0.0002364937 H           -0.0064 eV
Total energy:                       -3.2175286465 H          -87.5534 eV
Total Mermin free energy:           -3.2175286465 H          -87.5534 eV

SCC converged

Total Forces
     -0.010941377146     -0.008255034449      0.065364213361
      0.000750258423     -0.002906385122     -0.003136507013
      0.013966301295      0.024801960405     -0.027322462600
     -0.006653958551     -0.008574822024     -0.033852547692
      0.002878775980     -0.005065718810     -0.001052696057

Maximal derivative component:        0.653642E-01 au

Dipole moment:    0.00064834    0.00674991   -0.01890686 au
Dipole moment:    0.00164791    0.01715655   -0.04805646 Debye


