|===============================================================================
|
|  DFTB+ development version (commit: 8e8afb2, base: 18.1)
|
|  Copyright (C) 2018  DFTB+ developers group
|
|===============================================================================
|
|  When publishing results obtained with DFTB+, please cite the following
|  reference:
|
|  * B. Aradi, B. Hourahine and T. Frauenheim,
|    DFTB+, a Sparse Matrix-Based Implementation of the DFTB Method,
|    J. Phys. Chem. A, 111 5678 (2007).  [doi: 10.1021/jp070186p]
|
|  You should also cite additional publications crediting the parametrization
|  data you use. Please consult the documentation of the SK-files for the
|  references.
|
|===============================================================================


***  Parsing and initializing

Parser version: 5

Interpreting input file 'dftb_in.hsd'
--------------------------------------------------------------------------------
Reading SK-files:
  H-H.skf
  H-C.skf
  C-C.skf
Done.


Processed input in HSD format written to 'dftb_pin.hsd'

Starting initialization...
--------------------------------------------------------------------------------
MPI processes:               1
OpenMP threads:              4
BLACS orbital grid size:     1 x 1
BLACS atom grid size:        1 x 1
Chosen random seed:               614464412
Mode:                        Static calculation
Self consistent charges:     Yes
SCC-tolerance:                 0.100000E-07
Max. scc iterations:                    100
Spin polarisation:           No
Nr. of up electrons:             4.000000
Nr. of down electrons:           4.000000
Periodic boundaries:         No
Diagonalizer:                Divide and Conquer
Mixer:                       Broyden mixer
Mixing parameter:                  0.200000
Maximal SCC-cycles:                     100
Nr. of chrg. vec. in memory:              0
Force evaluation method:     Traditional                                                                                                                                                                                             
Electronic temperature:        0.100000E-07
Initial charges:             Set automatically (system chrg:   0.000E+00)
Included shells:             H:  s
                             C:  s, p

Using MBD model [Phys. Rev. Lett. 108, 236402 (2012)]
PLEASE CITE: J. Chem. Phys. 144, 151101 (2016)
  Parameters                vdw(TS) [Phys. Rev. Lett. 102, 073005 (2009)]
  Module                    mbdvdw
  MBD eigensolver           QR (LAPACK)
  PBC for MBD               No
  Gridsize (frequencies)    15
  Full Debug printing       No

Extra options:
                             Mulliken analysis
                             Force calculation
Force type                   original

--------------------------------------------------------------------------------

***  Geometry step: 0

 iSCC Total electronic   Diff electronic      SCC error    
 H0 -0.23860039999999999      -0.33463245575146727       -3.6080261220003122E-002 -0.21151549789727550       0.18486641969673395      -0.20914688133146436      -0.19149722264261551      -0.19049941590904781      -0.23860039999999999      -0.10406062080024776       -4.9706867622655464E-002  -3.2042229158907580E-002   9.3591809553775399E-002  -7.1108150600564260E-002  -6.6429728771169122E-002 -0.23860039999999999       -7.4715021951693356E-002  -8.3386515241891820E-002   3.9757240427442005E-002  -6.1631293651031635E-002   5.5586909724593306E-002 -0.23860039999999999       -9.0877249607206209E-002  -3.2059108085662792E-002  -9.2803720015897970E-002   1.1888249622489097E-002 -0.50489172000000004        0.0000000000000000        0.0000000000000000        0.0000000000000000        0.0000000000000000      -0.19435511000000000        0.0000000000000000        0.0000000000000000        0.0000000000000000        0.0000000000000000      -0.19435511000000000        0.0000000000000000        0.0000000000000000        0.0000000000000000        0.0000000000000000      -0.19435511000000000     
    1   -0.26913862E+01    0.00000000E+00    0.65091077E+00
 H0 -0.23860039999999999      -0.33463245575146727       -3.6080261220003122E-002 -0.21151549789727550       0.18486641969673395      -0.20914688133146436      -0.19149722264261551      -0.19049941590904781      -0.23860039999999999      -0.10406062080024776       -4.9706867622655464E-002  -3.2042229158907580E-002   9.3591809553775399E-002  -7.1108150600564260E-002  -6.6429728771169122E-002 -0.23860039999999999       -7.4715021951693356E-002  -8.3386515241891820E-002   3.9757240427442005E-002  -6.1631293651031635E-002   5.5586909724593306E-002 -0.23860039999999999       -9.0877249607206209E-002  -3.2059108085662792E-002  -9.2803720015897970E-002   1.1888249622489097E-002 -0.50489172000000004        0.0000000000000000        0.0000000000000000        0.0000000000000000        0.0000000000000000      -0.19435511000000000        0.0000000000000000        0.0000000000000000        0.0000000000000000        0.0000000000000000      -0.19435511000000000        0.0000000000000000        0.0000000000000000        0.0000000000000000        0.0000000000000000      -0.19435511000000000     
    2   -0.27108726E+01   -0.19486423E-01    0.32174976E+00
 H0 -0.23860039999999999      -0.33463245575146727       -3.6080261220003122E-002 -0.21151549789727550       0.18486641969673395      -0.20914688133146436      -0.19149722264261551      -0.19049941590904781      -0.23860039999999999      -0.10406062080024776       -4.9706867622655464E-002  -3.2042229158907580E-002   9.3591809553775399E-002  -7.1108150600564260E-002  -6.6429728771169122E-002 -0.23860039999999999       -7.4715021951693356E-002  -8.3386515241891820E-002   3.9757240427442005E-002  -6.1631293651031635E-002   5.5586909724593306E-002 -0.23860039999999999       -9.0877249607206209E-002  -3.2059108085662792E-002  -9.2803720015897970E-002   1.1888249622489097E-002 -0.50489172000000004        0.0000000000000000        0.0000000000000000        0.0000000000000000        0.0000000000000000      -0.19435511000000000        0.0000000000000000        0.0000000000000000        0.0000000000000000        0.0000000000000000      -0.19435511000000000        0.0000000000000000        0.0000000000000000        0.0000000000000000        0.0000000000000000      -0.19435511000000000     
    3   -0.27111260E+01   -0.25344291E-03    0.24112480E+00
 H0 -0.23860039999999999      -0.33463245575146727       -3.6080261220003122E-002 -0.21151549789727550       0.18486641969673395      -0.20914688133146436      -0.19149722264261551      -0.19049941590904781      -0.23860039999999999      -0.10406062080024776       -4.9706867622655464E-002  -3.2042229158907580E-002   9.3591809553775399E-002  -7.1108150600564260E-002  -6.6429728771169122E-002 -0.23860039999999999       -7.4715021951693356E-002  -8.3386515241891820E-002   3.9757240427442005E-002  -6.1631293651031635E-002   5.5586909724593306E-002 -0.23860039999999999       -9.0877249607206209E-002  -3.2059108085662792E-002  -9.2803720015897970E-002   1.1888249622489097E-002 -0.50489172000000004        0.0000000000000000        0.0000000000000000        0.0000000000000000        0.0000000000000000      -0.19435511000000000        0.0000000000000000        0.0000000000000000        0.0000000000000000        0.0000000000000000      -0.19435511000000000        0.0000000000000000        0.0000000000000000        0.0000000000000000        0.0000000000000000      -0.19435511000000000     
    4   -0.27112683E+01   -0.14229516E-03    0.31388297E-01
 H0 -0.23860039999999999      -0.33463245575146727       -3.6080261220003122E-002 -0.21151549789727550       0.18486641969673395      -0.20914688133146436      -0.19149722264261551      -0.19049941590904781      -0.23860039999999999      -0.10406062080024776       -4.9706867622655464E-002  -3.2042229158907580E-002   9.3591809553775399E-002  -7.1108150600564260E-002  -6.6429728771169122E-002 -0.23860039999999999       -7.4715021951693356E-002  -8.3386515241891820E-002   3.9757240427442005E-002  -6.1631293651031635E-002   5.5586909724593306E-002 -0.23860039999999999       -9.0877249607206209E-002  -3.2059108085662792E-002  -9.2803720015897970E-002   1.1888249622489097E-002 -0.50489172000000004        0.0000000000000000        0.0000000000000000        0.0000000000000000        0.0000000000000000      -0.19435511000000000        0.0000000000000000        0.0000000000000000        0.0000000000000000        0.0000000000000000      -0.19435511000000000        0.0000000000000000        0.0000000000000000        0.0000000000000000        0.0000000000000000      -0.19435511000000000     
    5   -0.27113164E+01   -0.48097639E-04    0.92816091E-03
 H0 -0.23860039999999999      -0.33463245575146727       -3.6080261220003122E-002 -0.21151549789727550       0.18486641969673395      -0.20914688133146436      -0.19149722264261551      -0.19049941590904781      -0.23860039999999999      -0.10406062080024776       -4.9706867622655464E-002  -3.2042229158907580E-002   9.3591809553775399E-002  -7.1108150600564260E-002  -6.6429728771169122E-002 -0.23860039999999999       -7.4715021951693356E-002  -8.3386515241891820E-002   3.9757240427442005E-002  -6.1631293651031635E-002   5.5586909724593306E-002 -0.23860039999999999       -9.0877249607206209E-002  -3.2059108085662792E-002  -9.2803720015897970E-002   1.1888249622489097E-002 -0.50489172000000004        0.0000000000000000        0.0000000000000000        0.0000000000000000        0.0000000000000000      -0.19435511000000000        0.0000000000000000        0.0000000000000000        0.0000000000000000        0.0000000000000000      -0.19435511000000000        0.0000000000000000        0.0000000000000000        0.0000000000000000        0.0000000000000000      -0.19435511000000000     
    6   -0.27113165E+01   -0.44687266E-07    0.37523866E-03
 H0 -0.23860039999999999      -0.33463245575146727       -3.6080261220003122E-002 -0.21151549789727550       0.18486641969673395      -0.20914688133146436      -0.19149722264261551      -0.19049941590904781      -0.23860039999999999      -0.10406062080024776       -4.9706867622655464E-002  -3.2042229158907580E-002   9.3591809553775399E-002  -7.1108150600564260E-002  -6.6429728771169122E-002 -0.23860039999999999       -7.4715021951693356E-002  -8.3386515241891820E-002   3.9757240427442005E-002  -6.1631293651031635E-002   5.5586909724593306E-002 -0.23860039999999999       -9.0877249607206209E-002  -3.2059108085662792E-002  -9.2803720015897970E-002   1.1888249622489097E-002 -0.50489172000000004        0.0000000000000000        0.0000000000000000        0.0000000000000000        0.0000000000000000      -0.19435511000000000        0.0000000000000000        0.0000000000000000        0.0000000000000000        0.0000000000000000      -0.19435511000000000        0.0000000000000000        0.0000000000000000        0.0000000000000000        0.0000000000000000      -0.19435511000000000     
    7   -0.27113165E+01   -0.10353087E-07    0.64017915E-05
 H0 -0.23860039999999999      -0.33463245575146727       -3.6080261220003122E-002 -0.21151549789727550       0.18486641969673395      -0.20914688133146436      -0.19149722264261551      -0.19049941590904781      -0.23860039999999999      -0.10406062080024776       -4.9706867622655464E-002  -3.2042229158907580E-002   9.3591809553775399E-002  -7.1108150600564260E-002  -6.6429728771169122E-002 -0.23860039999999999       -7.4715021951693356E-002  -8.3386515241891820E-002   3.9757240427442005E-002  -6.1631293651031635E-002   5.5586909724593306E-002 -0.23860039999999999       -9.0877249607206209E-002  -3.2059108085662792E-002  -9.2803720015897970E-002   1.1888249622489097E-002 -0.50489172000000004        0.0000000000000000        0.0000000000000000        0.0000000000000000        0.0000000000000000      -0.19435511000000000        0.0000000000000000        0.0000000000000000        0.0000000000000000        0.0000000000000000      -0.19435511000000000        0.0000000000000000        0.0000000000000000        0.0000000000000000        0.0000000000000000      -0.19435511000000000     
    8   -0.27113165E+01   -0.26858515E-11    0.34290317E-07
 H0 -0.23860039999999999      -0.33463245575146727       -3.6080261220003122E-002 -0.21151549789727550       0.18486641969673395      -0.20914688133146436      -0.19149722264261551      -0.19049941590904781      -0.23860039999999999      -0.10406062080024776       -4.9706867622655464E-002  -3.2042229158907580E-002   9.3591809553775399E-002  -7.1108150600564260E-002  -6.6429728771169122E-002 -0.23860039999999999       -7.4715021951693356E-002  -8.3386515241891820E-002   3.9757240427442005E-002  -6.1631293651031635E-002   5.5586909724593306E-002 -0.23860039999999999       -9.0877249607206209E-002  -3.2059108085662792E-002  -9.2803720015897970E-002   1.1888249622489097E-002 -0.50489172000000004        0.0000000000000000        0.0000000000000000        0.0000000000000000        0.0000000000000000      -0.19435511000000000        0.0000000000000000        0.0000000000000000        0.0000000000000000        0.0000000000000000      -0.19435511000000000        0.0000000000000000        0.0000000000000000        0.0000000000000000        0.0000000000000000      -0.19435511000000000     
    9   -0.27113165E+01   -0.31086245E-14    0.15767387E-11
>> Charges saved for restart in charges
 CPA:  0.25178067931755188       0.90915350331483258       0.96555749278142022       0.96394969843980283       0.97069454884873141     
Total dynamic anisotropic polarizability, \alpha_{ij}(iu), (a.u.)
-------------------------------------------------------------------
    u            xx         yy         zz         yz         xz         xy
  |   0.000000     26.320     23.803     27.919      0.489     -3.233     -0.650
  |   0.003624     26.318     23.801     27.917      0.489     -3.232     -0.650
  |   0.019427     26.270     23.757     27.865      0.488     -3.226     -0.649
  |   0.049278     26.003     23.514     27.573      0.484     -3.191     -0.645
  |   0.095887     25.154     22.744     26.649      0.473     -3.077     -0.631
  |   0.163858     23.162     20.947     24.482      0.442     -2.801     -0.593
  |   0.260739     19.492     17.670     20.500      0.372     -2.266     -0.504
  |   0.399006     14.309     13.098     14.917      0.253     -1.478     -0.346
  |   0.600000      8.931      8.349      9.201      0.122     -0.701     -0.167
  |   0.902242      4.797      4.606      4.883      0.039     -0.229     -0.054
  |   1.380693      2.269      2.225      2.288      0.009     -0.052     -0.012
  |   2.197021      0.943      0.935      0.946      0.001     -0.009     -0.002
  |   3.754417      0.330      0.330      0.331      0.000     -0.001     -0.000
  |   7.305481      0.088      0.088      0.088      0.000     -0.000     -0.000
  |  18.530638      0.014      0.014      0.014      0.000     -0.000     -0.000
  |  99.337689      0.000      0.000      0.000      0.000     -0.000     -0.000
--------------------------------------------------------------
Partitioned atomic C6 coefficients and polarizabilities (a.u.)
--------------------------------------------------------------
  | ATOM   1  H    0.417543          1.061294
  | ATOM   2  H    5.399355          4.062027
  | ATOM   3  H    6.145969          4.356424
  | ATOM   4  H    6.078731          4.323006
  | ATOM   5  C   47.901324         12.211143
--------------------------------------------------------------
Computing MBD@rsSCS energy...
--------------------------------------------------------------
 MBD energy   -1.6280985378358537E-004    -4.4302815316939219E-003
 q0(:, iAtom, 1)   1.0000000000000000        0.0000000000000000        0.0000000000000000        0.0000000000000000     
 qOutput(:, iAtom, 1)  0.63024397875491811        0.0000000000000000        0.0000000000000000        0.0000000000000000     
 coord(:,iAtom)   8.9268703613522137E-003  -4.2629141828431109E-003  -3.8289796166199125E-002
 q0(:, iAtom, 1)   1.0000000000000000        0.0000000000000000        0.0000000000000000        0.0000000000000000     
 qOutput(:, iAtom, 1)   1.0266973806301400        0.0000000000000000        0.0000000000000000        0.0000000000000000     
 coord(:,iAtom)  -1.5294223845212969        1.2609334608790033      -0.58130318448365492     
 q0(:, iAtom, 1)   1.0000000000000000        0.0000000000000000        0.0000000000000000        0.0000000000000000     
 qOutput(:, iAtom, 1)   1.0619023893381139        0.0000000000000000        0.0000000000000000        0.0000000000000000     
 coord(:,iAtom) -0.83871340054530574       -1.8250937692901459       0.85427217601337202     
 q0(:, iAtom, 1)   1.0000000000000000        0.0000000000000000        0.0000000000000000        0.0000000000000000     
 qOutput(:, iAtom, 1)   1.0589433789621241        0.0000000000000000        0.0000000000000000        0.0000000000000000     
 coord(:,iAtom)  0.91873409319605881       0.87959985218487724        1.7475905129095979     
 q0(:, iAtom, 1)   2.0000000000000000       0.66666666666666663       0.66666666666666663       0.66666666666666663     
 qOutput(:, iAtom, 1)   1.8376009182904698       0.87815493593663208       0.69403830185026139       0.81241871623734807     
 coord(:,iAtom)   1.3430450786443391      -0.26464191396104408       -1.5647253572687136     

Total Energy:                       -2.7065447643 H          -73.6488 eV
Total Mermin free energy:           -2.7065447643 H          -73.6488  eV
 !!!!!!!!!!!!!!!CALCULATING MBD GRADIENTS!!!!!!!!!!!!!!!!
   3.5207457464714320E-006   1.1995162313752604E-006  -5.3596071701578207E-006   1.2170191060451030E-005  -8.9007279984731902E-006   2.1460671561224220E-006   4.9644703841306148E-006   8.7361733179247558E-006  -4.7702419410794450E-006  -4.0758615684373389E-006  -5.1050977732253200E-006  -1.0505904431704072E-005  -1.6579545622619207E-005   4.0701362223893867E-006   1.8489686386846671E-005
