|===============================================================================
|
|  DFTB+ development version (commit: 8e8afb2, base: 18.1)
|
|  Copyright (C) 2018  DFTB+ developers group
|
|===============================================================================
|
|  When publishing results obtained with DFTB+, please cite the following
|  reference:
|
|  * B. Aradi, B. Hourahine and T. Frauenheim,
|    DFTB+, a Sparse Matrix-Based Implementation of the DFTB Method,
|    J. Phys. Chem. A, 111 5678 (2007).  [doi: 10.1021/jp070186p]
|
|  You should also cite additional publications crediting the parametrization
|  data you use. Please consult the documentation of the SK-files for the
|  references.
|
|===============================================================================


***  Parsing and initializing

Parser version: 5

Interpreting input file 'dftb_in.hsd'
--------------------------------------------------------------------------------
Reading SK-files:
  C-C.skf
  C-H.skf
  H-H.skf
Done.


Processed input in HSD format written to 'dftb_pin.hsd'

Starting initialization...
--------------------------------------------------------------------------------
MPI processes:               1
OpenMP threads:              4
BLACS orbital grid size:     1 x 1
BLACS atom grid size:        1 x 1
Chosen random seed:              1754364816
Mode:                        Static calculation
Self consistent charges:     Yes
SCC-tolerance:                 0.100000E-07
Max. scc iterations:                    100
Spin polarisation:           No
Nr. of up electrons:             4.000000
Nr. of down electrons:           4.000000
Periodic boundaries:         No
Diagonalizer:                Divide and Conquer
Mixer:                       Broyden mixer
Mixing parameter:                  0.200000
Maximal SCC-cycles:                     100
Nr. of chrg. vec. in memory:              0
Force evaluation method:     Traditional                                                                                                                                                                                             
Electronic temperature:        0.100000E-07
Initial charges:             Set automatically (system chrg:   0.000E+00)
Included shells:             C:  s, p
                             H:  s

Using MBD model [Phys. Rev. Lett. 108, 236402 (2012)]
PLEASE CITE: J. Chem. Phys. 144, 151101 (2016)
  Parameters                vdw(TS) [Phys. Rev. Lett. 102, 073005 (2009)]
  Module                    mbdvdw
  MBD eigensolver           QR (LAPACK)
  PBC for MBD               No
  Gridsize (frequencies)    15
  Full Debug printing       No

Extra options:
                             Mulliken analysis
                             Force calculation
Force type                   original

--------------------------------------------------------------------------------

***  Geometry step: 0

 iSCC Total electronic   Diff electronic      SCC error    
 H0 -0.50489172000000004        0.0000000000000000        0.0000000000000000        0.0000000000000000        0.0000000000000000      -0.19435511000000000        0.0000000000000000        0.0000000000000000        0.0000000000000000        0.0000000000000000      -0.19435511000000000        0.0000000000000000        0.0000000000000000        0.0000000000000000        0.0000000000000000      -0.19435511000000000      -0.33463245575146727        3.6080261220003122E-002  0.21151549789727550      -0.18486641969673395      -0.32978144209497290      -0.17158472835248689        7.3642958960943583E-002  0.20862946196584461      -0.30084676419181094      -0.10508757037149354      -0.21233366739309850      -0.10817225726913153      -0.29920421249404239       0.21483653637561007      -0.10531177130801776       0.10001154109580304      -0.23860039999999999       -7.1274422879316512E-002  -7.1108150600564260E-002  -6.6429728771169122E-002 -0.23860039999999999       -7.4715021951693356E-002  -5.8147665609647889E-002 -0.23860039999999999       -6.2927912023394234E-002 -0.23860039999999999     
    1   -0.32121392E+01    0.00000000E+00    0.34899073E+00
 H0 -0.50489172000000004        0.0000000000000000        0.0000000000000000        0.0000000000000000        0.0000000000000000      -0.19435511000000000        0.0000000000000000        0.0000000000000000        0.0000000000000000        0.0000000000000000      -0.19435511000000000        0.0000000000000000        0.0000000000000000        0.0000000000000000        0.0000000000000000      -0.19435511000000000      -0.33463245575146727        3.6080261220003122E-002  0.21151549789727550      -0.18486641969673395      -0.32978144209497290      -0.17158472835248689        7.3642958960943583E-002  0.20862946196584461      -0.30084676419181094      -0.10508757037149354      -0.21233366739309850      -0.10817225726913153      -0.29920421249404239       0.21483653637561007      -0.10531177130801776       0.10001154109580304      -0.23860039999999999       -7.1274422879316512E-002  -7.1108150600564260E-002  -6.6429728771169122E-002 -0.23860039999999999       -7.4715021951693356E-002  -5.8147665609647889E-002 -0.23860039999999999       -6.2927912023394234E-002 -0.23860039999999999     
    2   -0.32122439E+01   -0.10464527E-03    0.26506927E+00
 H0 -0.50489172000000004        0.0000000000000000        0.0000000000000000        0.0000000000000000        0.0000000000000000      -0.19435511000000000        0.0000000000000000        0.0000000000000000        0.0000000000000000        0.0000000000000000      -0.19435511000000000        0.0000000000000000        0.0000000000000000        0.0000000000000000        0.0000000000000000      -0.19435511000000000      -0.33463245575146727        3.6080261220003122E-002  0.21151549789727550      -0.18486641969673395      -0.32978144209497290      -0.17158472835248689        7.3642958960943583E-002  0.20862946196584461      -0.30084676419181094      -0.10508757037149354      -0.21233366739309850      -0.10817225726913153      -0.29920421249404239       0.21483653637561007      -0.10531177130801776       0.10001154109580304      -0.23860039999999999       -7.1274422879316512E-002  -7.1108150600564260E-002  -6.6429728771169122E-002 -0.23860039999999999       -7.4715021951693356E-002  -5.8147665609647889E-002 -0.23860039999999999       -6.2927912023394234E-002 -0.23860039999999999     
    3   -0.32123862E+01   -0.14233339E-03    0.17379393E-02
 H0 -0.50489172000000004        0.0000000000000000        0.0000000000000000        0.0000000000000000        0.0000000000000000      -0.19435511000000000        0.0000000000000000        0.0000000000000000        0.0000000000000000        0.0000000000000000      -0.19435511000000000        0.0000000000000000        0.0000000000000000        0.0000000000000000        0.0000000000000000      -0.19435511000000000      -0.33463245575146727        3.6080261220003122E-002  0.21151549789727550      -0.18486641969673395      -0.32978144209497290      -0.17158472835248689        7.3642958960943583E-002  0.20862946196584461      -0.30084676419181094      -0.10508757037149354      -0.21233366739309850      -0.10817225726913153      -0.29920421249404239       0.21483653637561007      -0.10531177130801776       0.10001154109580304      -0.23860039999999999       -7.1274422879316512E-002  -7.1108150600564260E-002  -6.6429728771169122E-002 -0.23860039999999999       -7.4715021951693356E-002  -5.8147665609647889E-002 -0.23860039999999999       -6.2927912023394234E-002 -0.23860039999999999     
    4   -0.32123863E+01   -0.86928118E-07    0.11510863E-02
 H0 -0.50489172000000004        0.0000000000000000        0.0000000000000000        0.0000000000000000        0.0000000000000000      -0.19435511000000000        0.0000000000000000        0.0000000000000000        0.0000000000000000        0.0000000000000000      -0.19435511000000000        0.0000000000000000        0.0000000000000000        0.0000000000000000        0.0000000000000000      -0.19435511000000000      -0.33463245575146727        3.6080261220003122E-002  0.21151549789727550      -0.18486641969673395      -0.32978144209497290      -0.17158472835248689        7.3642958960943583E-002  0.20862946196584461      -0.30084676419181094      -0.10508757037149354      -0.21233366739309850      -0.10817225726913153      -0.29920421249404239       0.21483653637561007      -0.10531177130801776       0.10001154109580304      -0.23860039999999999       -7.1274422879316512E-002  -7.1108150600564260E-002  -6.6429728771169122E-002 -0.23860039999999999       -7.4715021951693356E-002  -5.8147665609647889E-002 -0.23860039999999999       -6.2927912023394234E-002 -0.23860039999999999     
    5   -0.32123864E+01   -0.66873133E-07    0.82723808E-05
 H0 -0.50489172000000004        0.0000000000000000        0.0000000000000000        0.0000000000000000        0.0000000000000000      -0.19435511000000000        0.0000000000000000        0.0000000000000000        0.0000000000000000        0.0000000000000000      -0.19435511000000000        0.0000000000000000        0.0000000000000000        0.0000000000000000        0.0000000000000000      -0.19435511000000000      -0.33463245575146727        3.6080261220003122E-002  0.21151549789727550      -0.18486641969673395      -0.32978144209497290      -0.17158472835248689        7.3642958960943583E-002  0.20862946196584461      -0.30084676419181094      -0.10508757037149354      -0.21233366739309850      -0.10817225726913153      -0.29920421249404239       0.21483653637561007      -0.10531177130801776       0.10001154109580304      -0.23860039999999999       -7.1274422879316512E-002  -7.1108150600564260E-002  -6.6429728771169122E-002 -0.23860039999999999       -7.4715021951693356E-002  -5.8147665609647889E-002 -0.23860039999999999       -6.2927912023394234E-002 -0.23860039999999999     
    6   -0.32123864E+01   -0.24131808E-11    0.20308009E-05
 H0 -0.50489172000000004        0.0000000000000000        0.0000000000000000        0.0000000000000000        0.0000000000000000      -0.19435511000000000        0.0000000000000000        0.0000000000000000        0.0000000000000000        0.0000000000000000      -0.19435511000000000        0.0000000000000000        0.0000000000000000        0.0000000000000000        0.0000000000000000      -0.19435511000000000      -0.33463245575146727        3.6080261220003122E-002  0.21151549789727550      -0.18486641969673395      -0.32978144209497290      -0.17158472835248689        7.3642958960943583E-002  0.20862946196584461      -0.30084676419181094      -0.10508757037149354      -0.21233366739309850      -0.10817225726913153      -0.29920421249404239       0.21483653637561007      -0.10531177130801776       0.10001154109580304      -0.23860039999999999       -7.1274422879316512E-002  -7.1108150600564260E-002  -6.6429728771169122E-002 -0.23860039999999999       -7.4715021951693356E-002  -5.8147665609647889E-002 -0.23860039999999999       -6.2927912023394234E-002 -0.23860039999999999     
    7   -0.32123864E+01   -0.15365487E-12    0.53545542E-07
 H0 -0.50489172000000004        0.0000000000000000        0.0000000000000000        0.0000000000000000        0.0000000000000000      -0.19435511000000000        0.0000000000000000        0.0000000000000000        0.0000000000000000        0.0000000000000000      -0.19435511000000000        0.0000000000000000        0.0000000000000000        0.0000000000000000        0.0000000000000000      -0.19435511000000000      -0.33463245575146727        3.6080261220003122E-002  0.21151549789727550      -0.18486641969673395      -0.32978144209497290      -0.17158472835248689        7.3642958960943583E-002  0.20862946196584461      -0.30084676419181094      -0.10508757037149354      -0.21233366739309850      -0.10817225726913153      -0.29920421249404239       0.21483653637561007      -0.10531177130801776       0.10001154109580304      -0.23860039999999999       -7.1274422879316512E-002  -7.1108150600564260E-002  -6.6429728771169122E-002 -0.23860039999999999       -7.4715021951693356E-002  -5.8147665609647889E-002 -0.23860039999999999       -6.2927912023394234E-002 -0.23860039999999999     
    8   -0.32123864E+01   -0.88817842E-15    0.14531487E-10
>> Charges saved for restart in charges
 CPA:  0.81271967224648767       0.60010281031309809       0.62938930373699509       0.63781483897068469       0.57879455013203351     
Total dynamic anisotropic polarizability, \alpha_{ij}(iu), (a.u.)
-------------------------------------------------------------------
    u            xx         yy         zz         yz         xz         xy
  |   0.000000     18.448     18.528     19.472     -0.391     -0.304      0.046
  |   0.003624     18.447     18.527     19.471     -0.391     -0.304      0.046
  |   0.019427     18.420     18.499     19.443     -0.391     -0.304      0.045
  |   0.049278     18.270     18.343     19.285     -0.389     -0.305      0.040
  |   0.095887     17.793     17.846     18.782     -0.383     -0.310      0.024
  |   0.163858     16.658     16.665     17.582     -0.365     -0.317     -0.012
  |   0.260739     14.494     14.424     15.277     -0.324     -0.321     -0.075
  |   0.399006     11.189     11.039     11.723     -0.240     -0.288     -0.136
  |   0.600000      7.295      7.144      7.539     -0.127     -0.188     -0.132
  |   0.902242      3.954      3.880      4.023     -0.043     -0.074     -0.064
  |   1.380693      1.852      1.833      1.866     -0.010     -0.018     -0.016
  |   2.197021      0.766      0.763      0.769     -0.002     -0.003     -0.003
  |   3.754417      0.268      0.268      0.269     -0.000     -0.000     -0.000
  |   7.305481      0.072      0.072      0.072     -0.000     -0.000     -0.000
  |  18.530638      0.011      0.011      0.011     -0.000     -0.000     -0.000
  |  99.337689      0.000      0.000      0.000     -0.000     -0.000     -0.000
--------------------------------------------------------------
Partitioned atomic C6 coefficients and polarizabilities (a.u.)
--------------------------------------------------------------
  | ATOM   1  C   38.392035         10.632770
  | ATOM   2  H    1.476560          1.908706
  | ATOM   3  H    1.863013          2.214373
  | ATOM   4  H    1.872608          2.216179
  | ATOM   5  H    1.390587          1.843737
--------------------------------------------------------------
Computing MBD@rsSCS energy...
--------------------------------------------------------------
 MBD energy   -2.3649368373934720E-004    -6.4353205600527746E-003
 q0(:, iAtom, 1)   2.0000000000000000       0.66666666666666663       0.66666666666666663       0.66666666666666663     
 qOutput(:, iAtom, 1)   1.3089872471788311        1.0010715778435344       0.97802075530532884        1.0024017913233765     
 coord(:,iAtom)   8.9268703613522137E-003  -4.2629141828431109E-003  -3.8289796166199125E-002
 q0(:, iAtom, 1)   1.0000000000000000        0.0000000000000000        0.0000000000000000        0.0000000000000000     
 qOutput(:, iAtom, 1)  0.92313673926295803        0.0000000000000000        0.0000000000000000        0.0000000000000000     
 coord(:,iAtom)  -1.5294223845212969        1.2609334608790033      -0.58130318448365492     
 q0(:, iAtom, 1)   1.0000000000000000        0.0000000000000000        0.0000000000000000        0.0000000000000000     
 qOutput(:, iAtom, 1)  0.93514238696076635        0.0000000000000000        0.0000000000000000        0.0000000000000000     
 coord(:,iAtom) -0.83871340054530574       -1.8250937692901459       0.85427217601337202     
 q0(:, iAtom, 1)   1.0000000000000000        0.0000000000000000        0.0000000000000000        0.0000000000000000     
 qOutput(:, iAtom, 1)  0.94203004868380436        0.0000000000000000        0.0000000000000000        0.0000000000000000     
 coord(:,iAtom)  0.91873409319605881       0.87959985218487724        1.7475905129095979     
 q0(:, iAtom, 1)   1.0000000000000000        0.0000000000000000        0.0000000000000000        0.0000000000000000     
 qOutput(:, iAtom, 1)  0.90920945344140003        0.0000000000000000        0.0000000000000000        0.0000000000000000     
 coord(:,iAtom)   1.3430450786443391      -0.26464191396104408       -1.5647253572687136     

Total Energy:                       -3.2175286465 H          -87.5534 eV
Total Mermin free energy:           -3.2175286465 H          -87.5534  eV
 !!!!!!!!!!!!!!!CALCULATING MBD GRADIENTS!!!!!!!!!!!!!!!!
  -8.5063111089633825E-007   5.6541941491211611E-006  -4.0766477909237597E-006   2.0926981288083013E-005  -1.7427648437151610E-005   7.0559957328492073E-006   8.3388297867290073E-006   1.7171408244212594E-005  -8.4957258288942405E-006  -8.6177416198721102E-006  -8.9037391915805508E-006  -1.6974145572848376E-005  -1.9797438343960305E-005   3.5057852352873842E-006   2.2490523459872680E-005
