|===============================================================================
|
|  DFTB+ development version (commit: 8e8afb2, base: 18.1)
|
|  Copyright (C) 2018  DFTB+ developers group
|
|===============================================================================
|
|  When publishing results obtained with DFTB+, please cite the following
|  reference:
|
|  * B. Aradi, B. Hourahine and T. Frauenheim,
|    DFTB+, a Sparse Matrix-Based Implementation of the DFTB Method,
|    J. Phys. Chem. A, 111 5678 (2007).  [doi: 10.1021/jp070186p]
|
|  You should also cite additional publications crediting the parametrization
|  data you use. Please consult the documentation of the SK-files for the
|  references.
|
|===============================================================================


***  Parsing and initializing

Parser version: 5

Interpreting input file 'dftb_in.hsd'
--------------------------------------------------------------------------------
Reading SK-files:
  C-C.skf
  C-H.skf
  H-H.skf
Done.


Processed input in HSD format written to 'dftb_pin.hsd'

Starting initialization...
--------------------------------------------------------------------------------
MPI processes:               1
OpenMP threads:              4
BLACS orbital grid size:     1 x 1
BLACS atom grid size:        1 x 1
Chosen random seed:               472276395
Mode:                        Static calculation
Self consistent charges:     Yes
SCC-tolerance:                 0.100000E-07
Max. scc iterations:                    100
Spin polarisation:           No
Nr. of up electrons:             4.000000
Nr. of down electrons:           4.000000
Periodic boundaries:         No
Diagonalizer:                Divide and Conquer
Mixer:                       Broyden mixer
Mixing parameter:                  0.200000
Maximal SCC-cycles:                     100
Nr. of chrg. vec. in memory:              0
Force evaluation method:     Traditional                                                                                                                                                                                             
Electronic temperature:        0.100000E-07
Initial charges:             Set automatically (system chrg:   0.000E+00)
Included shells:             C:  s, p
                             H:  s

Using MBD model [Phys. Rev. Lett. 108, 236402 (2012)]
PLEASE CITE: J. Chem. Phys. 144, 151101 (2016)
  Parameters                vdw(TS) [Phys. Rev. Lett. 102, 073005 (2009)]
  Module                    mbdvdw
  MBD eigensolver           QR (LAPACK)
  PBC for MBD               No
  Gridsize (frequencies)    15
  Full Debug printing       No

Extra options:
                             Mulliken analysis
                             Force calculation
Force type                   original

--------------------------------------------------------------------------------

***  Geometry step: 0

 iSCC Total electronic   Diff electronic      SCC error    
    1   -0.32415740E+01    0.00000000E+00    0.37060371E+00
    2   -0.32416566E+01   -0.82627759E-04    0.28431702E+00
    3   -0.32417740E+01   -0.11740220E-03    0.30553172E-02
    4   -0.32417742E+01   -0.14920762E-06    0.19291489E-02
    5   -0.32417743E+01   -0.10048250E-06    0.34679218E-04
    6   -0.32417743E+01   -0.43144155E-10    0.24476295E-05
    7   -0.32417743E+01   -0.25446312E-12    0.25361397E-06
    8   -0.32417743E+01   -0.35527137E-14    0.13626433E-10
>> Charges saved for restart in charges
 CPA:  0.81025250433532381       0.57455519833069935       0.66000461631283247       0.56347941714752847       0.59893139322796551     
Total dynamic anisotropic polarizability, \alpha_{ij}(iu), (a.u.)
-------------------------------------------------------------------
    u            xx         yy         zz         yz         xz         xy
  |   0.000000     18.638     17.668     17.908     -0.207     -0.142     -0.185
  |   0.003624     18.637     17.667     17.907     -0.207     -0.142     -0.186
  |   0.019427     18.611     17.641     17.882     -0.207     -0.141     -0.186
  |   0.049278     18.465     17.491     17.741     -0.201     -0.134     -0.188
  |   0.095887     18.000     17.016     17.293     -0.185     -0.113     -0.195
  |   0.163858     16.892     15.888     16.226     -0.146     -0.064     -0.210
  |   0.260739     14.765     13.752     14.193     -0.074      0.028     -0.229
  |   0.399006     11.467     10.545     11.068      0.016      0.139     -0.223
  |   0.600000      7.487      6.865      7.306      0.064      0.174     -0.154
  |   0.902242      4.019      3.765      3.975      0.043      0.096     -0.062
  |   1.380693      1.856      1.794      1.848      0.012      0.026     -0.015
  |   2.197021      0.761      0.751      0.760      0.002      0.004     -0.002
  |   3.754417      0.266      0.264      0.266      0.000      0.001     -0.000
  |   7.305481      0.071      0.071      0.071      0.000      0.000     -0.000
  |  18.530638      0.011      0.011      0.011      0.000      0.000     -0.000
  |  99.337689      0.000      0.000      0.000      0.000      0.000     -0.000
--------------------------------------------------------------
Partitioned atomic C6 coefficients and polarizabilities (a.u.)
--------------------------------------------------------------
  | ATOM   1  C   37.239761         10.379041
  | ATOM   2  H    1.341776          1.807213
  | ATOM   3  H    2.012646          2.321265
  | ATOM   4  H    1.105415          1.590406
  | ATOM   5  H    1.540244          1.973760
--------------------------------------------------------------
Computing MBD@rsSCS energy...
--------------------------------------------------------------
 MBD energy   -2.4544232867818039E-004    -6.6788255782373436E-003

Total Energy:                       -3.2122009676 H          -87.4084 eV
Total Mermin free energy:           -3.2122009676 H          -87.4084  eV
 !!!!!!!!!!!!!!!CALCULATING MBD GRADIENTS!!!!!!!!!!!!!!!!
   2.0342049526916872E-006   1.6671233880605207E-006   9.9723653336492024E-006   2.6698780325878912E-005  -1.5559900495482060E-005   8.9087704494283937E-006   7.0048674652174042E-006   1.7165051019851080E-005  -6.2083816092586841E-006  -1.8063783112559628E-005  -1.1210359404545400E-005  -3.1792549264886283E-005  -1.7674069631296030E-005   7.9380854919666732E-006   1.9119795091046554E-005
