|===============================================================================
|
|  DFTB+ development version (commit: 8e8afb2, base: 18.1)
|
|  Copyright (C) 2018  DFTB+ developers group
|
|===============================================================================
|
|  When publishing results obtained with DFTB+, please cite the following
|  reference:
|
|  * B. Aradi, B. Hourahine and T. Frauenheim,
|    DFTB+, a Sparse Matrix-Based Implementation of the DFTB Method,
|    J. Phys. Chem. A, 111 5678 (2007).  [doi: 10.1021/jp070186p]
|
|  You should also cite additional publications crediting the parametrization
|  data you use. Please consult the documentation of the SK-files for the
|  references.
|
|===============================================================================


***  Parsing and initializing

Parser version: 5

Interpreting input file 'dftb_in.hsd'
--------------------------------------------------------------------------------
Reading SK-files:
  C-C.skf
  C-H.skf
  H-H.skf
Done.


Processed input in HSD format written to 'dftb_pin.hsd'

Starting initialization...
--------------------------------------------------------------------------------
MPI processes:               1
OpenMP threads:              4
BLACS orbital grid size:     1 x 1
BLACS atom grid size:        1 x 1
Chosen random seed:               272233243
Mode:                        Static calculation
Self consistent charges:     No
Spin polarisation:           No
Nr. of up electrons:             4.000000
Nr. of down electrons:           4.000000
Periodic boundaries:         No
Diagonalizer:                Divide and Conquer
Force evaluation method:     Traditional                                                                                                                                                                                             
Electronic temperature:        0.100000E-07
Included shells:             C:  s, p
                             H:  s
Extra options:
                             Mulliken analysis
                             Force calculation
Force type                   original

--------------------------------------------------------------------------------

***  Geometry step: 0

 H0 -0.50489176548030001        0.0000000000000000        0.0000000000000000        0.0000000000000000        0.0000000000000000      -0.19435517991820001        0.0000000000000000        0.0000000000000000        0.0000000000000000        0.0000000000000000      -0.19435517991820001        0.0000000000000000        0.0000000000000000        0.0000000000000000        0.0000000000000000      -0.19435517991820001      -0.31669846422756709       0.23383309123372509       -5.9729225851200309E-002   9.2185806191495065E-002 -0.31255922867098784        4.0602786145366200E-002  0.21093319039796152      -0.13876217681114386      -0.30389659458469565      -0.12581667914782529       0.12583720998244458       0.17591056303579375      -0.27653986536520203       -8.4809343925199149E-002 -0.17775025846826079      -0.12375284258112534      -0.23860054404830000      -0.11116448044499096       -8.1852154565243487E-002  -5.2067453315990726E-002 -0.23860054404830000       -9.2272353355299555E-002  -7.2053656082363374E-002 -0.23860054404830000       -6.6389549948929538E-002 -0.23860054404830000     
 q0(:, iAtom, 1)   2.0000000000000000       0.66666666666666663       0.66666666666666663       0.66666666666666663     
 qOutput(:, iAtom, 1)   1.4159695542382913        1.0478955206970841       0.99028849642760164        1.0614721736274653     
 coord(:,iAtom)  -6.5199326057950010E-003   1.9220043981898399E-002   3.6623513268235763E-002
 q0(:, iAtom, 1)   1.0000000000000000        0.0000000000000000        0.0000000000000000        0.0000000000000000     
 qOutput(:, iAtom, 1)  0.86290154817896214        0.0000000000000000        0.0000000000000000        0.0000000000000000     
 coord(:,iAtom)  -1.5032520795314843        1.0897291996013230       -1.0340603286215733     
 q0(:, iAtom, 1)   1.0000000000000000        0.0000000000000000        0.0000000000000000        0.0000000000000000     
 qOutput(:, iAtom, 1)  0.87429822776244814        0.0000000000000000        0.0000000000000000        0.0000000000000000     
 coord(:,iAtom) -0.74414372640574356       -1.8517930652759413       0.51454630847139837     
 q0(:, iAtom, 1)   1.0000000000000000        0.0000000000000000        0.0000000000000000        0.0000000000000000     
 qOutput(:, iAtom, 1)  0.86450253476520222        0.0000000000000000        0.0000000000000000        0.0000000000000000     
 coord(:,iAtom)   1.1990288720821405       0.84539745585320891        1.7681927213768027     
 q0(:, iAtom, 1)   1.0000000000000000        0.0000000000000000        0.0000000000000000        0.0000000000000000     
 qOutput(:, iAtom, 1)  0.88267194430294804        0.0000000000000000        0.0000000000000000        0.0000000000000000     
 coord(:,iAtom)   1.1259328346521564      -0.31214357819075478       -1.6848245114181015     

Total Energy:                       -2.9825522180 H          -81.1594 eV
Total Mermin free energy:           -2.9825522180 H          -81.1594  eV
