  MPI-parallelism will be employed.
------------------------------------------------------------
          Invoking FHI-aims ...
          Version 171221_1
          Compiled on 2019/08/20 at 16:40:07 on host core401.

          When using FHI-aims, please cite the following reference:

          Volker Blum, Ralf Gehrke, Felix Hanke, Paula Havu,
          Ville Havu, Xinguo Ren, Karsten Reuter, and Matthias Scheffler,
          'Ab Initio Molecular Simulations with Numeric Atom-Centered Orbitals',
          Computer Physics Communications 180, 2175-2196 (2009)

          For any questions about FHI-aims, please visit the aimsclub website
          with its forums and wiki. Contributions to both the forums and the
          wiki are warmly encouraged - they are for you, and everyone is welcome there.

------------------------------------------------------------



  Date     :  20191112, Time     :  195728.032
  Time zero on CPU 1             :   0.160000000000000E-01  s.
  Internal wall clock time zero  :           342820648.032  s.

  FHI-aims created a unique identifier for this run for later identification
  aims_uuid : B914E9E4-BEE7-4720-A1A3-EF43AF076823

  Using        4 parallel tasks.
  Task        0 on host core401 reporting.
  Task        1 on host core401 reporting.
  Task        2 on host core401 reporting.
  Task        3 on host core401 reporting.

  Performing system and environment tests:
  *** Environment variable OMP_NUM_THREADS is not set
  *** For performance reasons you might want to set it to 1
  | Maximum stacksize for task 0: unlimited
  | Maximum stacksize for task 1: unlimited
  | Maximum stacksize for task 2: unlimited
  | Maximum stacksize for task 3: unlimited
  | Current stacksize for task 0: unlimited
  | Current stacksize for task 1: unlimited
  | Current stacksize for task 2: unlimited
  | Current stacksize for task 3: unlimited
  | Checking for scalapack...
  | Testing pdtran()...
  | All pdtran() tests passed.

  Obtaining array dimensions for all initial allocations:
  
  -----------------------------------------------------------------------
  Parsing control.in (first pass over file, find array dimensions only).
  The contents of control.in will be repeated verbatim below
  unless switched off by setting 'verbatim_writeout .false.' .
  in the first line of control.in .
  -----------------------------------------------------------------------
  
  #########################################################################################
  #
  #   input file control.in tight for scaling studies
  #
  #########################################################################################
  #
  #  Physical model
  #
    xc                 pbe
  #  vdw_correction_hirshfeld
    many_body_dispersion vacuum=.true.:.true.:.true.
    spin               none
    relativistic       atomic_zora scalar
    charge             0.
  #  k_grid 1 1 1
  #
  #  SCF convergence
  #
    occupation_type    gaussian 0.1
    mixer              pulay
      n_max_pulay        5
      charge_mix_param   0.3
      sc_iter_limit      100
  #
    output             dipole
  #  collect_eigenvectors .false.
  #  use_local_index .false.
  #  use_alltoall .false.
  #  elpa_settings two_step_solver
  #  output elpa_timings
  #
  ################################################################################
  #
  #  FHI-aims code project
  #  VB, Fritz-Haber Institut, 2009
  #
  #  Suggested "tight" defaults for C atom (to be pasted into control.in file)
  #
  ################################################################################
    species        C
  #     global species definitions
      nucleus             6
      mass                12.0107
  #
      l_hartree           6
  #
      cut_pot             4.0  2.0  1.0
      basis_dep_cutoff    1e-4
  #
      radial_base         34 7.0
      radial_multiplier   2
      angular_grids specified
        division   0.2187   50
        division   0.4416  110
        division   0.6335  194
        division   0.7727  302
        division   0.8772  434
  #      division   0.9334  590
  #      division   0.9924  770
  #      division   1.0230  974
  #      division   1.5020 1202
  #     outer_grid  974
        outer_grid  434
  ################################################################################
  #
  #  Definition of "minimal" basis
  #
  ################################################################################
  #     valence basis states
      valence      2  s   2.
      valence      2  p   2.
  #     ion occupancy
      ion_occ      2  s   1.
      ion_occ      2  p   1.
  ################################################################################
  #
  #  Suggested additional basis functions. For production calculations,
  #  uncomment them one after another (the most important basis functions are
  #  listed first).
  #
  #  Constructed for dimers: 1.0 A, 1.25 A, 1.5 A, 2.0 A, 3.0 A
  #
  ################################################################################
  #  "First tier" - improvements: -1214.57 meV to -155.61 meV
       hydro 2 p 1.7
       hydro 3 d 6
       hydro 2 s 4.9
  #  "Second tier" - improvements: -67.75 meV to -5.23 meV
       hydro 4 f 9.8
       hydro 3 p 5.2
       hydro 3 s 4.3
       hydro 5 g 14.4
       hydro 3 d 6.2
  #  "Third tier" - improvements: -2.43 meV to -0.60 meV
  #     hydro 2 p 5.6
  #     hydro 2 s 1.4
  #     hydro 3 d 4.9
  #     hydro 4 f 11.2
  #  "Fourth tier" - improvements: -0.39 meV to -0.18 meV
  #     hydro 2 p 2.1
  #     hydro 5 g 16.4
  #     hydro 4 d 13.2
  #     hydro 3 s 13.6
  #     hydro 4 f 17.6
  #  Further basis functions - improvements: -0.08 meV and below
  #     hydro 3 s 2
  #     hydro 3 p 6
  #     hydro 4 d 20
  
  ################################################################################
  #
  #  FHI-aims code project
  #  VB, Fritz-Haber Institut, 2009
  #
  #  Suggested "tight" defaults for H atom (to be pasted into control.in file)
  #
  ################################################################################
    species        H
  #     global species definitions
      nucleus             1
      mass                1.00794
  #
      l_hartree           6
  #
      cut_pot             4.0  2.0  1.0
      basis_dep_cutoff    1e-4
  #
      radial_base         24 7.0
      radial_multiplier   2
      angular_grids       specified
        division   0.1930   50
        division   0.3175  110
        division   0.4293  194
        division   0.5066  302
        division   0.5626  434
  #      division   0.5922  590
  #      division   0.6227  974
  #      division   0.6868 1202
  #      outer_grid  770
        outer_grid  434
  ################################################################################
  #
  #  Definition of "minimal" basis
  #
  ################################################################################
  #     valence basis states
      valence      1  s   1.
  #     ion occupancy
      ion_occ      1  s   0.5
  ################################################################################
  #
  #  Suggested additional basis functions. For production calculations,
  #  uncomment them one after another (the most important basis functions are
  #  listed first).
  #
  #  Basis constructed for dimers: 0.5 A, 0.7 A, 1.0 A, 1.5 A, 2.5 A
  #
  ################################################################################
  #  "First tier" - improvements: -1014.90 meV to -62.69 meV
       hydro 2 s 2.1
       hydro 2 p 3.5
  #  "Second tier" - improvements: -12.89 meV to -1.83 meV
       hydro 1 s 0.85
       hydro 2 p 3.7
       hydro 2 s 1.2
       hydro 3 d 7
  #  "Third tier" - improvements: -0.25 meV to -0.12 meV
  #     hydro 4 f 11.2
  #     hydro 3 p 4.8
  #     hydro 4 d 9
  #     hydro 3 s 3.2
  ################################################################################
  #
  #  FHI-aims code project
  #  Volker Blum, Fritz Haber Institute Berlin, 2009
  #
  #  Suggested "tight" defaults for Si atom (to be pasted into control.in file)
  #
  #  Revised Jan 04, 2011, following tests (SiC) done by Lydia Nemec:
  #     d and g functions of tier 2 now enabled by default.
  #
  ################################################################################
  #  species        Si
  #     global species definitions
  #    nucleus             14
  #    mass                28.0855
  #
  #    l_hartree           6
  #
  #    cut_pot             4.0          2.0  1.0
  #    basis_dep_cutoff    1e-4
  #
  #    radial_base         42 7.0
  #    radial_multiplier   2
  #    angular_grids       specified
  #      division   0.4121   50
  #      division   0.7665  110
  #      division   1.0603  194
  #      division   1.2846  302
  #      division   1.4125  434
  #      division   1.4810  590
  #      division   1.5529  770
  #      division   1.6284  974
  #      division   2.6016 1202
  #      outer_grid   974
  #      outer_grid  434
  ################################################################################
  #
  #  Definition of "minimal" basis
  #
  ################################################################################
  #     valence basis states
  #    valence      3  s   2.
  #    valence      3  p   2.
  #     ion occupancy
  #    ion_occ      3  s   1.
  #    ion_occ      3  p   1.
  ################################################################################
  #
  #  Suggested additional basis functions. For production calculations,
  #  uncomment them one after another (the most important basis functions are
  #  listed first).
  #
  #  Constructed for dimers: 1.75 A, 2.0 A, 2.25 A, 2.75 A, 3.75 A
  #
  ################################################################################
  #  "First tier" - improvements: -571.96 meV to -37.03 meV
  #     hydro 3 d 4.2
  #     hydro 2 p 1.4
  #     hydro 4 f 6.2
  #     ionic 3 s auto
  #  "Second tier" - improvements: -16.76 meV to -3.03 meV
  #     hydro 3 d 9
  #     hydro 5 g 9.4
  #     hydro 4 p 4
  #     hydro 1 s 0.65
  #  "Third tier" - improvements: -3.89 meV to -0.60 meV
  #     ionic 3 d auto
  #     hydro 3 s 2.6
  #     hydro 4 f 8.4
  #     hydro 3 d 3.4
  #     hydro 3 p 7.8
  #  "Fourth tier" - improvements: -0.33 meV to -0.11 meV
  #     hydro 2 p 1.6
  #     hydro 5 g 10.8
  #     hydro 5 f 11.2
  #     hydro 3 d 1
  #     hydro 4 s 4.5
  #  Further basis functions that fell out of the optimization - noise
  #  level... < -0.08 meV
  #     hydro 4 d 6.6
  #     hydro 5 g 16.4
  #     hydro 4 d 9
  
  
  
  -----------------------------------------------------------------------
  Completed first pass over input file control.in .
  -----------------------------------------------------------------------
  
  
  -----------------------------------------------------------------------
  Parsing geometry.in (first pass over file, find array dimensions only).
  The contents of geometry.in will be repeated verbatim below
  unless switched off by setting 'verbatim_writeout .false.' .
  in the first line of geometry.in .
  -----------------------------------------------------------------------
  
  atom 0.0047238967 -0.0022558372 -0.020262089 C
  atom -0.80933553 0.6672573 -0.30761242 H
  atom -0.44382805 -0.9657981 0.4520614 H
  atom 0.48617318 0.46546423 0.92478514 H
  atom 0.7107089 -0.14004248 -0.82801706 H
  
  -----------------------------------------------------------------------
  Completed first pass over input file geometry.in .
  -----------------------------------------------------------------------
  

  Basic array size parameters:
  | Number of species                 :        2
  | Number of atoms                   :        5
  | Max. basis fn. angular momentum   :        4
  | Max. atomic/ionic basis occupied n:        2
  | Max. number of basis fn. types    :        2
  | Max. radial fns per species/type  :        8
  | Max. logarithmic grid size        :     1277
  | Max. radial integration grid size :       69
  | Max. angular integration grid size:      434
  | Max. angular grid division number :        8
  | Radial grid for Hartree potential :     1277
  | Number of spin channels           :        1

------------------------------------------------------------
          Reading file control.in.
------------------------------------------------------------
  XC: Using PBE gradient-corrected functionals.
  Using the default MBD implementation with analytical forces
  Spin treatment: No spin polarisation.
  Scalar relativistic treatment of kinetic energy: on-site free-atom approximation to ZORA.
  Charge =   0.000000E+00: Neutral system requested explicitly.
  Occupation type: Gaussian broadening, width =   0.100000E+00 eV.
  Using pulay charge density mixing.
  Pulay mixing - number of memorized iterations:    5
  Charge density mixing - mixing parameter:     0.3000
  Maximum number of s.-c. iterations  :   100
  Dipole moment will be written out.
 
  Reading configuration options for species C                   .
  | Found nuclear charge :   6.0000
  | Found atomic mass :    12.0107000000000      amu
  | Found l_max for Hartree potential  :   6
  | Found cutoff potl. onset [A], width [A], scale factor :    4.00000    2.00000    1.00000
  | Threshold for basis-dependent cutoff potential is   0.100000E-03
  | Found data for basic radial integration grid :    34 points, outermost radius =    7.000 A
  | Found multiplier for basic radial grid :   2
  | Found angular grid specification: user-specified.
  | Specified grid contains     6 separate shells.
  | Check grid settings after all constraints further below.
  | Found free-atom valence shell :  2 s   2.000
  | Found free-atom valence shell :  2 p   2.000
  | No ionic wave fns used. Skipping ion_occ.
  | No ionic wave fns used. Skipping ion_occ.
  | Found hydrogenic basis function :  2 p   1.700
  | Found hydrogenic basis function :  3 d   6.000
  | Found hydrogenic basis function :  2 s   4.900
  | Found hydrogenic basis function :  4 f   9.800
  | Found hydrogenic basis function :  3 p   5.200
  | Found hydrogenic basis function :  3 s   4.300
  | Found hydrogenic basis function :  5 g  14.400
  | Found hydrogenic basis function :  3 d   6.200
  Species C                   : Missing cutoff potential type.
  Defaulting to exp(1/x)/(1-x)^2 type cutoff potential.
  Species C : No 'logarithmic' tag. Using default grid for free atom:
  | Default logarithmic grid data [bohr] : 0.1000E-03 0.1000E+03 0.1012E+01
  Species C : On-site basis accuracy parameter (for Gram-Schmidt orthonormalisation) not specified.
  Using default value basis_acc =  0.1000000E-03.
  Species C                   : Using default innermost maximum threshold i_radial=  2 for radial functions.
  Species C                   : Default cutoff onset for free atom density etc. : 0.40000000E+01 AA.
  Species C                   : Basic radial grid will be enhanced according to radial_multiplier =   2, to contain    69 grid points.
 
  Reading configuration options for species H                   .
  | Found nuclear charge :   1.0000
  | Found atomic mass :    1.00794000000000      amu
  | Found l_max for Hartree potential  :   6
  | Found cutoff potl. onset [A], width [A], scale factor :    4.00000    2.00000    1.00000
  | Threshold for basis-dependent cutoff potential is   0.100000E-03
  | Found data for basic radial integration grid :    24 points, outermost radius =    7.000 A
  | Found multiplier for basic radial grid :   2
  | Found angular grid specification: user-specified.
  | Specified grid contains     6 separate shells.
  | Check grid settings after all constraints further below.
  | Found free-atom valence shell :  1 s   1.000
  | No ionic wave fns used. Skipping ion_occ.
  | Found hydrogenic basis function :  2 s   2.100
  | Found hydrogenic basis function :  2 p   3.500
  | Found hydrogenic basis function :  1 s   0.850
  | Found hydrogenic basis function :  2 p   3.700
  | Found hydrogenic basis function :  2 s   1.200
  | Found hydrogenic basis function :  3 d   7.000
  Species H                   : Missing cutoff potential type.
  Defaulting to exp(1/x)/(1-x)^2 type cutoff potential.
  Species H : No 'logarithmic' tag. Using default grid for free atom:
  | Default logarithmic grid data [bohr] : 0.1000E-03 0.1000E+03 0.1012E+01
  Species H : On-site basis accuracy parameter (for Gram-Schmidt orthonormalisation) not specified.
  Using default value basis_acc =  0.1000000E-03.
  Species H                   : Using default innermost maximum threshold i_radial=  2 for radial functions.
  Species H                   : Default cutoff onset for free atom density etc. : 0.40000000E+01 AA.
  Species H                   : Basic radial grid will be enhanced according to radial_multiplier =   2, to contain    49 grid points.
 
  Finished reading input file 'control.in'. Consistency checks are next.
 
  MPI_IN_PLACE appears to work with this MPI implementation.
  | Keeping use_mpi_in_place .true. (see manual).
  Target number of points in a grid batch is not set. Defaulting to  100
  Method for grid partitioning is not set. Defaulting to parallel hash+maxmin partitioning.
  Batch size limit is not set. Defaulting to    200
  By default, will store active basis functions for each batch.
  If in need of memory, prune_basis_once .false. can be used to disable this option.
  communication_type for Hartree potential was not specified.
  Defaulting to calc_hartree .
  Pulay mixer: Number of initial linear mixing iterations not set.
  Defaulting to    0 iterations.
  Work space size for distributed Hartree potential not set.
  Defaulting to   0.200000E+03 MB.
  Algorithm-dependent basis array size parameters:
  | n_max_pulay                         :        5
 * Notice: The s.c.f. convergence criterion sc_accuracy_rho was not provided.
 * We used to stop in this case, and ask the user to provide reasonable
 * scf convergence criteria. However, this led some users to employ criteria
 * that led to extremely long run times, e.g., for simple relaxation.
 * We now preset a default value for sc_accuracy_rho if it is not set.
 * You may still wish to check if this setting is too tight or too loose for your needs.
 * Based on n_atoms, FHI-aims chose sc_accuracy_rho =  0.100000E-05 .
  Presetting      1001 iterations before the initial mixing cycle
  is restarted anyway using the sc_init_iter criterion / keyword.
  Presetting a factor      1.000 between actual scf density residual
  and density convergence criterion sc_accuracy_rho below which sc_init_iter
  takes no effect.
 * No s.c.f. convergence criteria (sc_accuracy_*) were provided in control.in.
 * The run will proceed with a reasonable default guess, but please check whether.
 * the s.c.f. cycles seem to take too much or too little time.
  Calculation of forces was not defined in control.in. No forces will be calculated.
  Geometry relaxation not requested: no relaxation will be performed.
  No accuracy limit for integral partition fn. given. Defaulting to  0.1000E-14.
  No threshold value for u(r) in integrations given. Defaulting to  0.1000E-05.
  No accuracy for occupation numbers given. Defaulting to  0.1000E-12.
  No threshold value for occupation numbers given. Defaulting to  0.0000E+00.
  No accuracy for fermi level given. Defaulting to  0.1000E-19.
  Maximum # of iterations to find E_F not set. Defaulting to  200.
  Preferred method for the eigenvalue solver ('KS_method') not specified in 'control.in'.
  Calling BLACS routine to test compilation state
  Since ScaLAPACK support is enabled, defaulting to 'elsi'.
  Will not use alltoall communication since running on < 1024 CPUs.
  Threshold for basis singularities not set.
  Default threshold for basis singularities:  0.1000E-04
  partition_type (choice of integration weights) for integrals was not specified.
  | Using a version of the partition function of Stratmann and coworkers ('stratmann_smoother').
  | At each grid point, the set of atoms used to build the partition table is smoothly restricted to
  | only those atoms whose free-atom density would be non-zero at that grid point.
  Partitioning for Hartree potential was not defined. Using partition_type for integrals.
  | Adjusted default value of keyword multip_moments_threshold to:       0.10000000E-11
  | This value may affect high angular momentum components of the Hartree potential in periodic systems.
  No q(lm)/r^(l+1) cutoff set for long-range Hartree potential.
  | Using default value of  0.100000E-09 .
  | Verify using the multipole_threshold keyword.
  Defaulting to new monopole extrapolation.
  Density update method: automatic selection selected.
------------------------------------------------------------


------------------------------------------------------------
          Reading geometry description geometry.in.
------------------------------------------------------------
  Input structure read successfully.
  The structure contains        5 atoms,  and a total of         10.000 electrons.

  Input geometry:
  | No unit cell requested.
  | Atomic structure:
  |       Atom                x [A]            y [A]            z [A]
  |    1: Species C             0.00472390       -0.00225584       -0.02026209
  |    2: Species H            -0.80933553        0.66725730       -0.30761242
  |    3: Species H            -0.44382805       -0.96579810        0.45206140
  |    4: Species H             0.48617318        0.46546423        0.92478514
  |    5: Species H             0.71070890       -0.14004248       -0.82801706
  |

  | The smallest distance between any two atoms is         1.08160440 AA.
  |
  | The first atom of this pair is atom number                      1 .
  | The second atom of this pair is atom number                     5 .

  Number of empty states per atom not set in control.in - providing a guess from actual geometry.
  | Total number of empty states used during s.c.f. cycle:        9
  If you use a very high smearing, use empty_states (per atom!) in control.in to increase this value.

  Structure-dependent array size parameters: 
  | Maximum number of distinct radial functions  :       18
  | Maximum number of basis functions            :       99
  | Number of Kohn-Sham states (occupied + empty):       14
------------------------------------------------------------

------------------------------------------------------------
          Preparing all fixed parts of the calculation.
------------------------------------------------------------
  Determining machine precision:
    2.225073858507201E-308
  Setting up grids for atomic and cluster calculations.

  Creating wave function, potential, and density for free atoms.

  Species: C

  List of occupied orbitals and eigenvalues:
    n    l              occ      energy [Ha]    energy [eV]
    1    0           2.0000       -10.049212      -273.4530
    2    0           2.0000        -0.504761       -13.7352
    2    1           2.0000        -0.193631        -5.2690


  Species: H

  List of occupied orbitals and eigenvalues:
    n    l              occ      energy [Ha]    energy [eV]
    1    0           1.0000        -0.238386        -6.4868

  Creating fixed part of basis set: Ionic, confined, hydrogenic.
 
  C                    hydrogenic:
 
  List of hydrogenic basis orbitals: 
    n    l      effective z      eigenvalue [eV]  inner max. [A]     outer max. [A]     outer radius [A]   
    2    1         1.700000        -9.8152           1.245706           1.245706           5.401630
    3    2         6.000000       -54.4226           0.792453           0.792453           4.178599
    2    0         4.900000       -81.6681           0.082559           0.562749           3.353238
    4    3         9.800000       -81.6681           0.863254           0.863254           4.028125
    3    1         5.200000       -40.8774           0.305389           1.215618           4.898362
    3    0         4.300000       -27.9508           0.091041           1.610311           5.401630
    5    4        14.400000      -112.8510           0.917666           0.917666           3.883070
    3    2         6.200000       -58.1113           0.763917           0.763917           4.077671
 
 
  H                    hydrogenic:
 
  List of hydrogenic basis orbitals: 
    n    l      effective z      eigenvalue [eV]  inner max. [A]     outer max. [A]     outer radius [A]   
    2    0         2.100000       -14.9965           0.193243           1.317208           5.373006
    2    1         3.500000       -41.6672           0.602369           0.602369           4.056063
    1    0         0.850000        -9.8292           0.624871           0.624871           5.373006
    2    1         3.700000       -46.5653           0.573622           0.573622           3.910002
    2    0         1.200000        -4.5995           0.334980           2.228188           5.505995
    3    2         7.000000       -74.0753           0.680699           0.680699           3.769201
 

  Adding cutoff potential to free-atom effective potential.
  Creating atomic-like basis functions for current effective potential.

  Species C                   :

  List of atomic basis orbitals and eigenvalues:
    n    l      energy [Ha]    energy [eV]    outer radius [A]
    1    0       -10.049212      -273.4530       1.934409
    2    0        -0.504761       -13.7352       5.271162
    2    1        -0.193631        -5.2690       5.401630


  Species H                   :

  List of atomic basis orbitals and eigenvalues:
    n    l      energy [Ha]    energy [eV]    outer radius [A]
    1    0        -0.238386        -6.4868       5.373006

  Assembling full basis from fixed parts.
  | Species C :   atomic orbital   1 s accepted.
  | Species C :    hydro orbital   2 s accepted.
  | Species C :   atomic orbital   2 s accepted.
  | Species C :    hydro orbital   3 s accepted.
  | Species C :    hydro orbital   3 p accepted.
  | Species C :   atomic orbital   2 p accepted.
  | Species C :    hydro orbital   2 p accepted.
  | Species C :    hydro orbital   3 d accepted.
  | Species C :    hydro orbital   3 d accepted.
  | Species C :    hydro orbital   4 f accepted.
  | Species C :    hydro orbital   5 g accepted.
  | Species H :   atomic orbital   1 s accepted.
  | Species H :    hydro orbital   2 s accepted.
  | Species H :    hydro orbital   1 s accepted.
  | Species H :    hydro orbital   2 s accepted.
  | Species H :    hydro orbital   2 p accepted.
  | Species H :    hydro orbital   2 p accepted.
  | Species H :    hydro orbital   3 d accepted.
 
  Basis size parameters after reduction:
  | Total number of radial functions:       18
  | Total number of basis functions :       99
 
  Per-task memory consumption for arrays in subroutine allocate_ext:
  |           5.887940MB.
  Testing on-site integration grid accuracy.
  |  Species  Function  <phi|h_atom|phi> (log., in eV)  <phi|h_atom|phi> (rad., in eV)
           1        1               -273.4529725981               -273.4529710451
           1        2                -10.7721037329                -10.7721022102
           1        3                 17.6044132585                 17.6044162052
           1        4                 53.7706460564                 53.7706913681
           1        5                 15.0973290351                 15.0973256011
           1        6                  3.8545134677                  3.8545724657
           1        7                 12.1156992586                 12.1182024423
           1        8                 29.4352039288                 29.4352041805
           1        9                 54.8741144697                 54.8740268719
           1       10                 59.3556032036                 59.3556031370
           1       11                 93.4551837140                 93.4551837996
           2       12                 -6.4870767962                 -6.4871688290
           2       13                 13.5032046589                 13.5028982997
           2       14                 32.8195184817                 32.8119941656
           2       15                 33.8513856511                 33.7670005767 ***
           2       16                 28.8544614965                 28.8544615203
           2       17                 59.6326952547                 59.6327656460
           2       18                 60.2719308513                 60.2719305949
 * Note: Onsite integrals marked "***" above are less accurate than
 * onsite_accuracy_threshold =    0.03000 eV. Usually, this is harmless.
 * When in doubt, tighten the "radial" and/or "radial_multiplier" flags to check.

  Preparing densities etc. for the partition functions (integrals / Hartree potential).

  Preparations completed.
  max(cpu_time)          :      0.088 s.
  Wall clock time (cpu1) :      0.107 s.
------------------------------------------------------------

------------------------------------------------------------
          Begin self-consistency loop: Initialization.

          Date     :  20191112, Time     :  195728.173
------------------------------------------------------------

  Initializing index lists of integration centers etc. from given atomic structure:
  | Number of centers in hartree potential         :         5
  | Number of centers in hartree multipole         :         5
  | Number of centers in electron density summation:         5
  | Number of centers in basis integrals           :         5
  | Number of centers in integrals                 :         5
  | Number of centers in hamiltonian               :         5
  * Using 4 tasks for Scalapack Eigenvalue solver.
  Detailed listing of tasks and assigned k-points:
  (for non-periodic systems, the "k-point" denotes an internal label only)
   Task     0 k-point     1 on core401
   Task     1 k-point     1 on core401
   Task     2 k-point     1 on core401
   Task     3 k-point     1 on core401
  Tasks:     4 split into      2 X      2 BLACS grid
  Calculating block size based on n_basis =           99 max_nprow =            2 max_npcol =            2
  ScaLAPACK block size set to:           16
  Allocating        0.021 MB for ovlp
  Allocating        0.021 MB for ham
  Allocating        0.021 MB for eigenvec
  Required Scalapack workspace - INTEGER:            1 REAL:             1
  Partitioning the integration grid into batches with parallel hashing+maxmin method.
  | Number of batches:      965
  | Maximal batch size:     184
  | Minimal batch size:      58
  | Average batch size:      78.630
  | Standard deviation of batch sizes:      20.991

  Integration load balanced across     4 MPI tasks.
  Work distribution over tasks is as follows:
  Task     0 has      19014 integration points.
  Task     1 has      18966 integration points.
  Task     2 has      18966 integration points.
  Task     3 has      18932 integration points.
  Initializing partition tables, free-atom densities, potentials, etc. across the integration grid (initialize_grid_storage).
  | initialize_grid_storage: Actual outermost partition radius vs. multipole_radius_free
  | (-- VB: in principle, multipole_radius_free should be larger, hence this output)
  | Species        1: Confinement radius =              6.000000000000000 AA, multipole_radius_free =              6.029870734432609 AA.
  | Species        1: outer_partition_radius set to              6.029870734432609 AA .
  | Species        2: Confinement radius =              6.000000000000000 AA, multipole_radius_free =              6.071692442739658 AA.
  | Species        2: outer_partition_radius set to              6.071692442739658 AA .
  | Original list of interatomic distances with           5 x          5 entries is created.
  | Net number of integration points:    75878
  | of which are non-zero points    :    65313
  Renormalizing the initial density to the exact electron count on the 3D integration grid.
  | Initial density: Formal number of electrons (from input files) :      10.0000000000
  | Integrated number of electrons on 3D grid     :       9.9999987735
  | Charge integration error                      :      -0.0000012265
  | Normalization factor for density and gradient :       1.0000001227
  Obtaining max. number of non-zero basis functions in each batch (get_n_compute_maxes).
  | Maximal number of non-zero basis functions:       99 in task     0
  | Maximal number of non-zero basis functions:       99 in task     1
  | Maximal number of non-zero basis functions:       99 in task     2
  | Maximal number of non-zero basis functions:       99 in task     3
  Selecting the method for density update.
  Loop over occupied states selected for charge density update.
  Allocating        0.011 MB for KS_eigenvector
  Integrating Hamiltonian matrix: batch-based integration.
  Time summed over all CPUs for integration: real work        0.295 s, elapsed        0.402 s => Consider using load balancing!
  Integrating overlap matrix.
  Time summed over all CPUs for integration: real work        0.092 s, elapsed        0.093 s
  Deallocating overlap matrix.

  Updating Kohn-Sham eigenvalues and eigenvectors using ELSI and the ELPA eigensolver.
  ELPA settings:
  | ELPA solver          1
  | Time full => band           :     0.000 s
  | Time band => tridiagonal    :     0.000 s
  | Time solve tridiagonal      :     0.000 s
  Overlap matrix is nonsingular
  | Lowest eigenvalue of overlap  :  0.20E-03
  | Highest eigenvalue of overlap :  0.45E+01
  Finished singularity check of overlap matrix
  | Time :     0.001 s
  Finished Cholesky decomposition
  | Time :     0.000 s
  Finished transformation to standard eigenproblem
  | Time :     0.000 s
  Starting ELPA eigensolver
  | Time full => tridiagonal    :     0.001 s
  | Time solve tridiagonal      :     0.000 s
  | Time ev tridiagonal => full :     0.000 s
  Finished solving standard eigenproblem
  | Time :     0.001 s
  Finished back-transformation of eigenvectors
  | Time :     0.000 s

  Obtaining occupation numbers and chemical potential using ELSI.
  | Chemical potential (Fermi level):   -12.36877738eV
  Writing Kohn-Sham eigenvalues.

  State    Occupation    Eigenvalue [Ha]    Eigenvalue [eV]
      1       2.00000         -10.174943         -276.87430
      2       2.00000          -0.812766          -22.11648
      3       2.00000          -0.541979          -14.74800
      4       2.00000          -0.524446          -14.27091
      5       2.00000          -0.492560          -13.40325
      6       0.00000          -0.056652           -1.54157
      7       0.00000          -0.019081           -0.51921
      8       0.00000          -0.002671           -0.07267
      9       0.00000           0.003826            0.10411
     10       0.00000           0.039121            1.06454
     11       0.00000           0.043613            1.18677
     12       0.00000           0.052553            1.43004
     13       0.00000           0.139367            3.79237
     14       0.00000           0.193482            5.26492

  Highest occupied state (VBM) at    -13.40324598 eV
  | Occupation number:      2.00000000

  Lowest unoccupied state (CBM) at    -1.54156579 eV
  | Occupation number:      0.00000000

  Overall HOMO-LUMO gap:     11.86168019 eV.
  Calculating total energy contributions from superposition of free atom densities.

  Total energy components:
  | Sum of eigenvalues            :         -25.09338918 Ha        -682.82586151 eV
  | XC energy correction          :          -6.47411476 Ha        -176.16962608 eV
  | XC potential correction       :           8.31518487 Ha         226.26769260 eV
  | Free-atom electrostatic energy:         -17.34838213 Ha        -472.07349656 eV
  | Hartree energy correction     :           0.00000000 Ha           0.00000000 eV
  | Entropy correction            :          -0.00000000 Ha          -0.00000000 eV
  | ---------------------------
  | Total energy                  :         -40.60070121 Ha       -1104.80129155 eV
  | Total energy, T -> 0          :         -40.60070121 Ha       -1104.80129155 eV  <-- do not rely on this value for anything but (periodic) metals
  | Electronic free energy        :         -40.60070121 Ha       -1104.80129155 eV

  Derived energy quantities:
  | Kinetic energy                :          39.20486910 Ha        1066.81876741 eV
  | Electrostatic energy          :         -73.33145555 Ha       -1995.45043288 eV
  | Energy correction for multipole
  | error in Hartree potential    :           0.00000000 Ha           0.00000000 eV
  | Sum of eigenvalues per atom                           :        -136.56517230 eV
  | Total energy (T->0) per atom                          :        -220.96025831 eV  <-- do not rely on this value for anything but (periodic) metals
  | Electronic free energy per atom                       :        -220.96025831 eV
  Initialize hartree_potential_storage
  Max. number of atoms included in rho_multipole:            5

  End scf initialization - timings             :  max(cpu_time)    wall_clock(cpu1)
  | Time for scf. initialization               :        0.240 s           0.239 s
  | Boundary condition initialization          :        0.000 s           0.001 s
  | Integration                                :        0.136 s           0.136 s
  | Solution of K.-S. eqns.                    :        0.008 s           0.005 s
  | Grid partitioning                          :        0.044 s           0.042 s
  | Preloading free-atom quantities on grid    :        0.008 s           0.007 s
  | Free-atom superposition energy             :        0.012 s           0.012 s
  | Total energy evaluation                    :        0.000 s           0.002 s

  Partial memory accounting:
  | Current value for overall tracked memory usage on task 0  :           0.114 MB
  | Peak value for overall tracked memory usage on task 0     :           0.671 MB after allocating wave
  | Largest tracked array allocation on task 0 so far         :           0.146 MB  when allocating H_times_psi
  Note:  These values currently only include a subset of arrays which are explicitly tracked.
  The "true" memory usage will be greater.
------------------------------------------------------------

------------------------------------------------------------
          Begin self-consistency iteration #    1

  Date     :  20191112, Time     :  195728.414
------------------------------------------------------------
  Evaluating new KS density.
  Integration grid: deviation in total charge (<rho> - N_e) =   1.776357E-15
  Pulay mixing of updated and previous charge densities.

  Evaluating partitioned Hartree potential by multipole expansion.
  | Analytical far-field extrapolation by fixed multipoles:
  | Hartree multipole sum: apparent total charge =  -0.169762E-05
  Summing up the Hartree potential.
  Time summed over all CPUs for potential: real work        0.140 s, elapsed        0.200 s
  | RMS charge density error from multipole expansion :   0.134017E-02

  Integrating Hamiltonian matrix: batch-based integration.
  Time summed over all CPUs for integration: real work        0.283 s, elapsed        0.365 s

  Updating Kohn-Sham eigenvalues and eigenvectors using ELSI and the ELPA eigensolver.
  ELPA settings:
  | ELPA solver          1
  Finished transformation to standard eigenproblem
  | Time :     0.000 s
  Starting ELPA eigensolver
  | Time full => tridiagonal    :     0.001 s
  | Time solve tridiagonal      :     0.000 s
  | Time ev tridiagonal => full :     0.000 s
  Finished solving standard eigenproblem
  | Time :     0.001 s
  Finished back-transformation of eigenvectors
  | Time :     0.000 s

  Obtaining occupation numbers and chemical potential using ELSI.
  | Chemical potential (Fermi level):    -2.37707327eV
  Writing Kohn-Sham eigenvalues.

  State    Occupation    Eigenvalue [Ha]    Eigenvalue [eV]
      1       2.00000          -9.947732         -270.69157
      2       2.00000          -0.701539          -19.08984
      3       2.00000          -0.440689          -11.99177
      4       2.00000          -0.424051          -11.53901
      5       2.00000          -0.396601          -10.79207
      6       0.00000          -0.028640           -0.77933
      7       0.00000           0.023910            0.65062
      8       0.00000           0.026834            0.73020
      9       0.00000           0.030847            0.83940
     10       0.00000           0.061797            1.68157
     11       0.00000           0.075975            2.06739
     12       0.00000           0.086547            2.35506
     13       0.00000           0.173669            4.72578
     14       0.00000           0.230721            6.27823

  Highest occupied state (VBM) at    -10.79206858 eV
  | Occupation number:      2.00000000

  Lowest unoccupied state (CBM) at    -0.77933139 eV
  | Occupation number:      0.00000000

  Overall HOMO-LUMO gap:     10.01273719 eV.

  Total energy components:
  | Sum of eigenvalues            :         -23.82122506 Ha        -648.20851430 eV
  | XC energy correction          :          -6.63307540 Ha        -180.49516505 eV
  | XC potential correction       :           8.52138436 Ha         231.87866628 eV
  | Free-atom electrostatic energy:         -17.34838213 Ha        -472.07349656 eV
  | Hartree energy correction     :          -1.22480453 Ha         -33.32862700 eV
  | Entropy correction            :          -0.00000000 Ha          -0.00000000 eV
  | ---------------------------
  | Total energy                  :         -40.50610275 Ha       -1102.22713663 eV
  | Total energy, T -> 0          :         -40.50610275 Ha       -1102.22713663 eV  <-- do not rely on this value for anything but (periodic) metals
  | Electronic free energy        :         -40.50610275 Ha       -1102.22713663 eV

  Derived energy quantities:
  | Kinetic energy                :          39.98322513 Ha        1087.99891261 eV
  | Electrostatic energy          :         -73.85625249 Ha       -2009.73088418 eV
  | Energy correction for multipole
  | error in Hartree potential    :          -0.00172666 Ha          -0.04698494 eV
  | Sum of eigenvalues per atom                           :        -129.64170286 eV
  | Total energy (T->0) per atom                          :        -220.44542733 eV  <-- do not rely on this value for anything but (periodic) metals
  | Electronic free energy per atom                       :        -220.44542733 eV

  Self-consistency convergence accuracy:
  | Change of charge density      :  0.3137E+00
  | Change of sum of eigenvalues  :  0.3462E+02 eV
  | Change of total energy        :  0.2574E+01 eV

  End self-consistency iteration #     1       :  max(cpu_time)    wall_clock(cpu1)
  | Time for this iteration                    :        0.216 s           0.215 s
  | Charge density update                      :        0.048 s           0.047 s
  | Density mixing                             :        0.004 s           0.002 s
  | Hartree multipole update                   :        0.016 s           0.016 s
  | Hartree multipole summation                :        0.052 s           0.051 s
  | Integration                                :        0.092 s           0.092 s
  | Solution of K.-S. eqns.                    :        0.004 s           0.002 s
  | Total energy evaluation                    :        0.000 s           0.002 s

  Partial memory accounting:
  | Current value for overall tracked memory usage on task 0  :           0.114 MB
  | Peak value for overall tracked memory usage on task 0     :           0.697 MB after allocating gradient_basis_wave
  | Largest tracked array allocation on task 0 so far         :           0.437 MB  when allocating gradient_basis_wave
  Note:  These values currently only include a subset of arrays which are explicitly tracked.
  The "true" memory usage will be greater.
------------------------------------------------------------

------------------------------------------------------------
          Begin self-consistency iteration #    2

  Date     :  20191112, Time     :  195728.631
------------------------------------------------------------
  Evaluating new KS density.
  Integration grid: deviation in total charge (<rho> - N_e) =   8.881784E-15
  Pulay mixing of updated and previous charge densities.

  Evaluating partitioned Hartree potential by multipole expansion.
  | Analytical far-field extrapolation by fixed multipoles:
  | Hartree multipole sum: apparent total charge =  -0.136852E-05
  Summing up the Hartree potential.
  Time summed over all CPUs for potential: real work        0.141 s, elapsed        0.211 s
  | RMS charge density error from multipole expansion :   0.250109E-02

  Integrating Hamiltonian matrix: batch-based integration.
  Time summed over all CPUs for integration: real work        0.264 s, elapsed        0.274 s

  Updating Kohn-Sham eigenvalues and eigenvectors using ELSI and the ELPA eigensolver.
  ELPA settings:
  | ELPA solver          1
  Finished transformation to standard eigenproblem
  | Time :     0.000 s
  Starting ELPA eigensolver
  | Time full => tridiagonal    :     0.001 s
  | Time solve tridiagonal      :     0.000 s
  | Time ev tridiagonal => full :     0.000 s
  Finished solving standard eigenproblem
  | Time :     0.001 s
  Finished back-transformation of eigenvectors
  | Time :     0.000 s

  Obtaining occupation numbers and chemical potential using ELSI.
  | Chemical potential (Fermi level):    -1.77864189eV
  Highest occupied state (VBM) at     -9.52670737 eV
  | Occupation number:      2.00000000

  Lowest unoccupied state (CBM) at    -0.39313227 eV
  | Occupation number:      0.00000000

  Overall HOMO-LUMO gap:      9.13357510 eV.

  Checking to see if s.c.f. parameters should be adjusted.

  Total energy components:
  | Sum of eigenvalues            :         -23.29044332 Ha        -633.76520834 eV
  | XC energy correction          :          -6.72261152 Ha        -182.93156683 eV
  | XC potential correction       :           8.63655639 Ha         235.01265671 eV
  | Free-atom electrostatic energy:         -17.34838213 Ha        -472.07349656 eV
  | Hartree energy correction     :          -1.76540000 Ha         -48.03897831 eV
  | Entropy correction            :          -0.00000000 Ha          -0.00000000 eV
  | ---------------------------
  | Total energy                  :         -40.49028058 Ha       -1101.79659333 eV
  | Total energy, T -> 0          :         -40.49028058 Ha       -1101.79659333 eV  <-- do not rely on this value for anything but (periodic) metals
  | Electronic free energy        :         -40.49028058 Ha       -1101.79659333 eV

  Derived energy quantities:
  | Kinetic energy                :          40.20015735 Ha        1093.90193855 eV
  | Electrostatic energy          :         -73.96782641 Ha       -2012.76696505 eV
  | Energy correction for multipole
  | error in Hartree potential    :          -0.00266686 Ha          -0.07256882 eV
  | Sum of eigenvalues per atom                           :        -126.75304167 eV
  | Total energy (T->0) per atom                          :        -220.35931867 eV  <-- do not rely on this value for anything but (periodic) metals
  | Electronic free energy per atom                       :        -220.35931867 eV

  Self-consistency convergence accuracy:
  | Change of charge density      :  0.1678E+00
  | Change of sum of eigenvalues  :  0.1444E+02 eV
  | Change of total energy        :  0.4305E+00 eV

  End self-consistency iteration #     2       :  max(cpu_time)    wall_clock(cpu1)
  | Time for this iteration                    :        0.196 s           0.199 s
  | Charge density update                      :        0.056 s           0.055 s
  | Density mixing                             :        0.004 s           0.014 s
  | Hartree multipole update                   :        0.004 s           0.004 s
  | Hartree multipole summation                :        0.056 s           0.054 s
  | Integration                                :        0.068 s           0.069 s
  | Solution of K.-S. eqns.                    :        0.004 s           0.002 s
  | Total energy evaluation                    :        0.000 s           0.001 s

  Partial memory accounting:
  | Current value for overall tracked memory usage on task 0  :           0.114 MB
  | Peak value for overall tracked memory usage on task 0     :           0.697 MB after allocating gradient_basis_wave
  | Largest tracked array allocation on task 0 so far         :           0.437 MB  when allocating gradient_basis_wave
  Note:  These values currently only include a subset of arrays which are explicitly tracked.
  The "true" memory usage will be greater.
------------------------------------------------------------

------------------------------------------------------------
          Begin self-consistency iteration #    3

  Date     :  20191112, Time     :  195728.830
------------------------------------------------------------
  Evaluating new KS density.
  Integration grid: deviation in total charge (<rho> - N_e) =   3.552714E-15
  Pulay mixing of updated and previous charge densities.

  Evaluating partitioned Hartree potential by multipole expansion.
  | Analytical far-field extrapolation by fixed multipoles:
  | Hartree multipole sum: apparent total charge =  -0.559519E-06
  Summing up the Hartree potential.
  Time summed over all CPUs for potential: real work        0.136 s, elapsed        0.191 s
  | RMS charge density error from multipole expansion :   0.405441E-02

  Integrating Hamiltonian matrix: batch-based integration.
  Time summed over all CPUs for integration: real work        0.262 s, elapsed        0.273 s

  Updating Kohn-Sham eigenvalues and eigenvectors using ELSI and the ELPA eigensolver.
  ELPA settings:
  | ELPA solver          1
  Finished transformation to standard eigenproblem
  | Time :     0.001 s
  Starting ELPA eigensolver
  | Time full => tridiagonal    :     0.001 s
  | Time solve tridiagonal      :     0.000 s
  | Time ev tridiagonal => full :     0.000 s
  Finished solving standard eigenproblem
  | Time :     0.001 s
  Finished back-transformation of eigenvectors
  | Time :     0.000 s

  Obtaining occupation numbers and chemical potential using ELSI.
  | Chemical potential (Fermi level):    -1.45630965eV
  Highest occupied state (VBM) at     -8.75028304 eV
  | Occupation number:      2.00000000

  Lowest unoccupied state (CBM) at    -0.09523234 eV
  | Occupation number:      0.00000000

  Overall HOMO-LUMO gap:      8.65505070 eV.

  Total energy components:
  | Sum of eigenvalues            :         -23.07320913 Ha        -627.85396531 eV
  | XC energy correction          :          -6.78745622 Ha        -184.69608098 eV
  | XC potential correction       :           8.71905431 Ha         237.25753940 eV
  | Free-atom electrostatic energy:         -17.34838213 Ha        -472.07349656 eV
  | Hartree energy correction     :          -1.99581945 Ha         -54.30901036 eV
  | Entropy correction            :          -0.00000000 Ha          -0.00000000 eV
  | ---------------------------
  | Total energy                  :         -40.48581261 Ha       -1101.67501380 eV
  | Total energy, T -> 0          :         -40.48581261 Ha       -1101.67501380 eV  <-- do not rely on this value for anything but (periodic) metals
  | Electronic free energy        :         -40.48581261 Ha       -1101.67501380 eV

  Derived energy quantities:
  | Kinetic energy                :          40.17193399 Ha        1093.13394183 eV
  | Electrostatic energy          :         -73.87029038 Ha       -2010.11287465 eV
  | Energy correction for multipole
  | error in Hartree potential    :          -0.00332569 Ha          -0.09049665 eV
  | Sum of eigenvalues per atom                           :        -125.57079306 eV
  | Total energy (T->0) per atom                          :        -220.33500276 eV  <-- do not rely on this value for anything but (periodic) metals
  | Electronic free energy per atom                       :        -220.33500276 eV

  Self-consistency convergence accuracy:
  | Change of charge density      :  0.9855E-01
  | Change of sum of eigenvalues  :  0.5911E+01 eV
  | Change of total energy        :  0.1216E+00 eV

  End self-consistency iteration #     3       :  max(cpu_time)    wall_clock(cpu1)
  | Time for this iteration                    :        0.196 s           0.200 s
  | Charge density update                      :        0.056 s           0.065 s
  | Density mixing                             :        0.004 s           0.002 s
  | Hartree multipole update                   :        0.012 s           0.012 s
  | Hartree multipole summation                :        0.048 s           0.049 s
  | Integration                                :        0.068 s           0.068 s
  | Solution of K.-S. eqns.                    :        0.004 s           0.002 s
  | Total energy evaluation                    :        0.000 s           0.000 s

  Partial memory accounting:
  | Current value for overall tracked memory usage on task 0  :           0.114 MB
  | Peak value for overall tracked memory usage on task 0     :           0.697 MB after allocating gradient_basis_wave
  | Largest tracked array allocation on task 0 so far         :           0.437 MB  when allocating gradient_basis_wave
  Note:  These values currently only include a subset of arrays which are explicitly tracked.
  The "true" memory usage will be greater.
------------------------------------------------------------

------------------------------------------------------------
          Begin self-consistency iteration #    4

  Date     :  20191112, Time     :  195729.031
------------------------------------------------------------
  Evaluating new KS density.
  Integration grid: deviation in total charge (<rho> - N_e) =   1.065814E-14
  Pulay mixing of updated and previous charge densities.

  Evaluating partitioned Hartree potential by multipole expansion.
  | Analytical far-field extrapolation by fixed multipoles:
  | Hartree multipole sum: apparent total charge =  -0.523404E-06
  Summing up the Hartree potential.
  Time summed over all CPUs for potential: real work        0.130 s, elapsed        0.165 s
  | RMS charge density error from multipole expansion :   0.417905E-02

  Integrating Hamiltonian matrix: batch-based integration.
  Time summed over all CPUs for integration: real work        0.260 s, elapsed        0.286 s

  Updating Kohn-Sham eigenvalues and eigenvectors using ELSI and the ELPA eigensolver.
  ELPA settings:
  | ELPA solver          1
  Finished transformation to standard eigenproblem
  | Time :     0.000 s
  Starting ELPA eigensolver
  | Time full => tridiagonal    :     0.001 s
  | Time solve tridiagonal      :     0.000 s
  | Time ev tridiagonal => full :     0.000 s
  Finished solving standard eigenproblem
  | Time :     0.001 s
  Finished back-transformation of eigenvectors
  | Time :     0.000 s

  Obtaining occupation numbers and chemical potential using ELSI.
  | Chemical potential (Fermi level):    -1.43287999eV
  Highest occupied state (VBM) at     -8.71065710 eV
  | Occupation number:      2.00000000

  Lowest unoccupied state (CBM) at    -0.07398761 eV
  | Occupation number:      0.00000000

  Overall HOMO-LUMO gap:      8.63666948 eV.

  Total energy components:
  | Sum of eigenvalues            :         -23.05946908 Ha        -627.48007943 eV
  | XC energy correction          :          -6.79064476 Ha        -184.78284566 eV
  | XC potential correction       :           8.72315358 Ha         237.36908621 eV
  | Free-atom electrostatic energy:         -17.34838213 Ha        -472.07349656 eV
  | Hartree energy correction     :          -2.01046636 Ha         -54.70757306 eV
  | Entropy correction            :          -0.00000000 Ha          -0.00000000 eV
  | ---------------------------
  | Total energy                  :         -40.48580874 Ha       -1101.67490850 eV
  | Total energy, T -> 0          :         -40.48580874 Ha       -1101.67490850 eV  <-- do not rely on this value for anything but (periodic) metals
  | Electronic free energy        :         -40.48580874 Ha       -1101.67490850 eV

  Derived energy quantities:
  | Kinetic energy                :          40.16385683 Ha        1092.91415122 eV
  | Electrostatic energy          :         -73.85902081 Ha       -2009.80621407 eV
  | Energy correction for multipole
  | error in Hartree potential    :          -0.00333438 Ha          -0.09073296 eV
  | Sum of eigenvalues per atom                           :        -125.49601589 eV
  | Total energy (T->0) per atom                          :        -220.33498170 eV  <-- do not rely on this value for anything but (periodic) metals
  | Electronic free energy per atom                       :        -220.33498170 eV

  Self-consistency convergence accuracy:
  | Change of charge density      :  0.6019E-02
  | Change of sum of eigenvalues  :  0.3739E+00 eV
  | Change of total energy        :  0.1053E-03 eV

  End self-consistency iteration #     4       :  max(cpu_time)    wall_clock(cpu1)
  | Time for this iteration                    :        0.212 s           0.210 s
  | Charge density update                      :        0.068 s           0.068 s
  | Density mixing                             :        0.016 s           0.013 s
  | Hartree multipole update                   :        0.012 s           0.013 s
  | Hartree multipole summation                :        0.040 s           0.042 s
  | Integration                                :        0.072 s           0.072 s
  | Solution of K.-S. eqns.                    :        0.004 s           0.002 s
  | Total energy evaluation                    :        0.000 s           0.000 s

  Partial memory accounting:
  | Current value for overall tracked memory usage on task 0  :           0.114 MB
  | Peak value for overall tracked memory usage on task 0     :           0.697 MB after allocating gradient_basis_wave
  | Largest tracked array allocation on task 0 so far         :           0.437 MB  when allocating gradient_basis_wave
  Note:  These values currently only include a subset of arrays which are explicitly tracked.
  The "true" memory usage will be greater.
------------------------------------------------------------

------------------------------------------------------------
          Begin self-consistency iteration #    5

  Date     :  20191112, Time     :  195729.241
------------------------------------------------------------
  Evaluating new KS density.
  Integration grid: deviation in total charge (<rho> - N_e) =  -7.105427E-15
  Pulay mixing of updated and previous charge densities.

  Evaluating partitioned Hartree potential by multipole expansion.
  | Analytical far-field extrapolation by fixed multipoles:
  | Hartree multipole sum: apparent total charge =  -0.537110E-06
  Summing up the Hartree potential.
  Time summed over all CPUs for potential: real work        0.116 s, elapsed        0.117 s
  | RMS charge density error from multipole expansion :   0.419939E-02

  Integrating Hamiltonian matrix: batch-based integration.
  Time summed over all CPUs for integration: real work        0.258 s, elapsed        0.279 s

  Updating Kohn-Sham eigenvalues and eigenvectors using ELSI and the ELPA eigensolver.
  ELPA settings:
  | ELPA solver          1
  Finished transformation to standard eigenproblem
  | Time :     0.000 s
  Starting ELPA eigensolver
  | Time full => tridiagonal    :     0.001 s
  | Time solve tridiagonal      :     0.000 s
  | Time ev tridiagonal => full :     0.000 s
  Finished solving standard eigenproblem
  | Time :     0.001 s
  Finished back-transformation of eigenvectors
  | Time :     0.000 s

  Obtaining occupation numbers and chemical potential using ELSI.
  | Chemical potential (Fermi level):    -1.43906240eV
  Highest occupied state (VBM) at     -8.73312173 eV
  | Occupation number:      2.00000000

  Lowest unoccupied state (CBM) at    -0.07815406 eV
  | Occupation number:      0.00000000

  Overall HOMO-LUMO gap:      8.65496767 eV.

  Total energy components:
  | Sum of eigenvalues            :         -23.06672150 Ha        -627.67742776 eV
  | XC energy correction          :          -6.78831158 Ha        -184.71935639 eV
  | XC potential correction       :           8.72018856 Ha         237.28840393 eV
  | Free-atom electrostatic energy:         -17.34838213 Ha        -472.07349656 eV
  | Hartree energy correction     :          -2.00258136 Ha         -54.49301144 eV
  | Entropy correction            :          -0.00000000 Ha          -0.00000000 eV
  | ---------------------------
  | Total energy                  :         -40.48580800 Ha       -1101.67488822 eV
  | Total energy, T -> 0          :         -40.48580800 Ha       -1101.67488822 eV  <-- do not rely on this value for anything but (periodic) metals
  | Electronic free energy        :         -40.48580800 Ha       -1101.67488822 eV

  Derived energy quantities:
  | Kinetic energy                :          40.15410754 Ha        1092.64885949 eV
  | Electrostatic energy          :         -73.85160396 Ha       -2009.60439132 eV
  | Energy correction for multipole
  | error in Hartree potential    :          -0.00328930 Ha          -0.08950654 eV
  | Sum of eigenvalues per atom                           :        -125.53548555 eV
  | Total energy (T->0) per atom                          :        -220.33497764 eV  <-- do not rely on this value for anything but (periodic) metals
  | Electronic free energy per atom                       :        -220.33497764 eV

  Self-consistency convergence accuracy:
  | Change of charge density      :  0.2746E-02
  | Change of sum of eigenvalues  : -0.1973E+00 eV
  | Change of total energy        :  0.2029E-04 eV

  End self-consistency iteration #     5       :  max(cpu_time)    wall_clock(cpu1)
  | Time for this iteration                    :        0.204 s           0.207 s
  | Charge density update                      :        0.088 s           0.089 s
  | Density mixing                             :        0.012 s           0.012 s
  | Hartree multipole update                   :        0.004 s           0.003 s
  | Hartree multipole summation                :        0.032 s           0.030 s
  | Integration                                :        0.072 s           0.070 s
  | Solution of K.-S. eqns.                    :        0.004 s           0.002 s
  | Total energy evaluation                    :        0.000 s           0.001 s

  Partial memory accounting:
  | Current value for overall tracked memory usage on task 0  :           0.114 MB
  | Peak value for overall tracked memory usage on task 0     :           0.697 MB after allocating gradient_basis_wave
  | Largest tracked array allocation on task 0 so far         :           0.437 MB  when allocating gradient_basis_wave
  Note:  These values currently only include a subset of arrays which are explicitly tracked.
  The "true" memory usage will be greater.
------------------------------------------------------------

------------------------------------------------------------
          Begin self-consistency iteration #    6

  Date     :  20191112, Time     :  195729.448
------------------------------------------------------------
  Evaluating new KS density.
  Integration grid: deviation in total charge (<rho> - N_e) =  -3.552714E-15
  Pulay mixing of updated and previous charge densities.

  Evaluating partitioned Hartree potential by multipole expansion.
  | Analytical far-field extrapolation by fixed multipoles:
  | Hartree multipole sum: apparent total charge =  -0.538084E-06
  Summing up the Hartree potential.
  Time summed over all CPUs for potential: real work        0.128 s, elapsed        0.153 s
  | RMS charge density error from multipole expansion :   0.421487E-02

  Integrating Hamiltonian matrix: batch-based integration.
  Time summed over all CPUs for integration: real work        0.312 s, elapsed        0.475 s => Consider using load balancing!

  Updating Kohn-Sham eigenvalues and eigenvectors using ELSI and the ELPA eigensolver.
  ELPA settings:
  | ELPA solver          1
  Finished transformation to standard eigenproblem
  | Time :     0.000 s
  Starting ELPA eigensolver
  | Time full => tridiagonal    :     0.001 s
  | Time solve tridiagonal      :     0.000 s
  | Time ev tridiagonal => full :     0.000 s
  Finished solving standard eigenproblem
  | Time :     0.001 s
  Finished back-transformation of eigenvectors
  | Time :     0.000 s

  Obtaining occupation numbers and chemical potential using ELSI.
  | Chemical potential (Fermi level):    -1.43727522eV
  Highest occupied state (VBM) at     -8.72994494 eV
  | Occupation number:      2.00000000

  Lowest unoccupied state (CBM) at    -0.07644040 eV
  | Occupation number:      0.00000000

  Overall HOMO-LUMO gap:      8.65350454 eV.

  Total energy components:
  | Sum of eigenvalues            :         -23.06616120 Ha        -627.66218128 eV
  | XC energy correction          :          -6.78821285 Ha        -184.71666988 eV
  | XC potential correction       :           8.72007218 Ha         237.28523691 eV
  | Free-atom electrostatic energy:         -17.34838213 Ha        -472.07349656 eV
  | Hartree energy correction     :          -2.00312403 Ha         -54.50777831 eV
  | Entropy correction            :          -0.00000000 Ha          -0.00000000 eV
  | ---------------------------
  | Total energy                  :         -40.48580803 Ha       -1101.67488912 eV
  | Total energy, T -> 0          :         -40.48580803 Ha       -1101.67488912 eV  <-- do not rely on this value for anything but (periodic) metals
  | Electronic free energy        :         -40.48580803 Ha       -1101.67488912 eV

  Derived energy quantities:
  | Kinetic energy                :          40.15260941 Ha        1092.60809325 eV
  | Electrostatic energy          :         -73.85020459 Ha       -2009.56631249 eV
  | Energy correction for multipole
  | error in Hartree potential    :          -0.00328268 Ha          -0.08932628 eV
  | Sum of eigenvalues per atom                           :        -125.53243626 eV
  | Total energy (T->0) per atom                          :        -220.33497782 eV  <-- do not rely on this value for anything but (periodic) metals
  | Electronic free energy per atom                       :        -220.33497782 eV

  Self-consistency convergence accuracy:
  | Change of charge density      :  0.6973E-03
  | Change of sum of eigenvalues  :  0.1525E-01 eV
  | Change of total energy        : -0.9039E-06 eV

  End self-consistency iteration #     6       :  max(cpu_time)    wall_clock(cpu1)
  | Time for this iteration                    :        0.208 s           0.213 s
  | Charge density update                      :        0.048 s           0.045 s
  | Density mixing                             :        0.004 s           0.004 s
  | Hartree multipole update                   :        0.004 s           0.003 s
  | Hartree multipole summation                :        0.036 s           0.039 s
  | Integration                                :        0.120 s           0.119 s
  | Solution of K.-S. eqns.                    :        0.004 s           0.002 s
  | Total energy evaluation                    :        0.000 s           0.000 s

  Partial memory accounting:
  | Current value for overall tracked memory usage on task 0  :           0.114 MB
  | Peak value for overall tracked memory usage on task 0     :           0.697 MB after allocating gradient_basis_wave
  | Largest tracked array allocation on task 0 so far         :           0.437 MB  when allocating gradient_basis_wave
  Note:  These values currently only include a subset of arrays which are explicitly tracked.
  The "true" memory usage will be greater.
------------------------------------------------------------

------------------------------------------------------------
          Begin self-consistency iteration #    7

  Date     :  20191112, Time     :  195729.662
------------------------------------------------------------
  Evaluating new KS density.
  Integration grid: deviation in total charge (<rho> - N_e) =  -3.552714E-15
  Pulay mixing of updated and previous charge densities.

  Evaluating partitioned Hartree potential by multipole expansion.
  | Analytical far-field extrapolation by fixed multipoles:
  | Hartree multipole sum: apparent total charge =  -0.535599E-06
  Summing up the Hartree potential.
  Time summed over all CPUs for potential: real work        0.128 s, elapsed        0.160 s
  | RMS charge density error from multipole expansion :   0.421454E-02

  Integrating Hamiltonian matrix: batch-based integration.
  Time summed over all CPUs for integration: real work        0.287 s, elapsed        0.399 s => Consider using load balancing!

  Updating Kohn-Sham eigenvalues and eigenvectors using ELSI and the ELPA eigensolver.
  ELPA settings:
  | ELPA solver          1
  Finished transformation to standard eigenproblem
  | Time :     0.000 s
  Starting ELPA eigensolver
  | Time full => tridiagonal    :     0.001 s
  | Time solve tridiagonal      :     0.000 s
  | Time ev tridiagonal => full :     0.000 s
  Finished solving standard eigenproblem
  | Time :     0.001 s
  Finished back-transformation of eigenvectors
  | Time :     0.000 s

  Obtaining occupation numbers and chemical potential using ELSI.
  | Chemical potential (Fermi level):    -1.43834678eV
  Highest occupied state (VBM) at     -8.73234412 eV
  | Occupation number:      2.00000000

  Lowest unoccupied state (CBM) at    -0.07712459 eV
  | Occupation number:      0.00000000

  Overall HOMO-LUMO gap:      8.65521953 eV.

  Total energy components:
  | Sum of eigenvalues            :         -23.06708988 Ha        -627.68745198 eV
  | XC energy correction          :          -6.78801092 Ha        -184.71117522 eV
  | XC potential correction       :           8.71981313 Ha         237.27818797 eV
  | Free-atom electrostatic energy:         -17.34838213 Ha        -472.07349656 eV
  | Hartree energy correction     :          -2.00213829 Ha         -54.48095485 eV
  | Entropy correction            :          -0.00000000 Ha          -0.00000000 eV
  | ---------------------------
  | Total energy                  :         -40.48580809 Ha       -1101.67489062 eV
  | Total energy, T -> 0          :         -40.48580809 Ha       -1101.67489062 eV  <-- do not rely on this value for anything but (periodic) metals
  | Electronic free energy        :         -40.48580809 Ha       -1101.67489062 eV

  Derived energy quantities:
  | Kinetic energy                :          40.15217048 Ha        1092.59614951 eV
  | Electrostatic energy          :         -73.84996765 Ha       -2009.55986492 eV
  | Energy correction for multipole
  | error in Hartree potential    :          -0.00328016 Ha          -0.08925771 eV
  | Sum of eigenvalues per atom                           :        -125.53749040 eV
  | Total energy (T->0) per atom                          :        -220.33497812 eV  <-- do not rely on this value for anything but (periodic) metals
  | Electronic free energy per atom                       :        -220.33497812 eV

  Self-consistency convergence accuracy:
  | Change of charge density      :  0.1103E-03
  | Change of sum of eigenvalues  : -0.2527E-01 eV
  | Change of total energy        : -0.1504E-05 eV

  End self-consistency iteration #     7       :  max(cpu_time)    wall_clock(cpu1)
  | Time for this iteration                    :        0.212 s           0.211 s
  | Charge density update                      :        0.052 s           0.050 s
  | Density mixing                             :        0.004 s           0.006 s
  | Hartree multipole update                   :        0.004 s           0.003 s
  | Hartree multipole summation                :        0.052 s           0.050 s
  | Integration                                :        0.100 s           0.100 s
  | Solution of K.-S. eqns.                    :        0.004 s           0.002 s
  | Total energy evaluation                    :        0.000 s           0.000 s

  Partial memory accounting:
  | Current value for overall tracked memory usage on task 0  :           0.114 MB
  | Peak value for overall tracked memory usage on task 0     :           0.697 MB after allocating gradient_basis_wave
  | Largest tracked array allocation on task 0 so far         :           0.437 MB  when allocating gradient_basis_wave
  Note:  These values currently only include a subset of arrays which are explicitly tracked.
  The "true" memory usage will be greater.
------------------------------------------------------------

------------------------------------------------------------
          Begin self-consistency iteration #    8

  Date     :  20191112, Time     :  195729.873
------------------------------------------------------------
  Evaluating new KS density.
  Integration grid: deviation in total charge (<rho> - N_e) =   3.552714E-15
  Pulay mixing of updated and previous charge densities.

  Evaluating partitioned Hartree potential by multipole expansion.
  | Analytical far-field extrapolation by fixed multipoles:
  | Hartree multipole sum: apparent total charge =  -0.535204E-06
  Summing up the Hartree potential.
  Time summed over all CPUs for potential: real work        0.141 s, elapsed        0.208 s
  | RMS charge density error from multipole expansion :   0.421544E-02

  Integrating Hamiltonian matrix: batch-based integration.
  Time summed over all CPUs for integration: real work        0.286 s, elapsed        0.393 s => Consider using load balancing!

  Updating Kohn-Sham eigenvalues and eigenvectors using ELSI and the ELPA eigensolver.
  ELPA settings:
  | ELPA solver          1
  Finished transformation to standard eigenproblem
  | Time :     0.000 s
  Starting ELPA eigensolver
  | Time full => tridiagonal    :     0.003 s
  | Time solve tridiagonal      :     0.000 s
  | Time ev tridiagonal => full :     0.000 s
  Finished solving standard eigenproblem
  | Time :     0.003 s
  Finished back-transformation of eigenvectors
  | Time :     0.000 s

  Obtaining occupation numbers and chemical potential using ELSI.
  | Chemical potential (Fermi level):    -1.43786977eV
  Highest occupied state (VBM) at     -8.73141828 eV
  | Occupation number:      2.00000000

  Lowest unoccupied state (CBM) at    -0.07678913 eV
  | Occupation number:      0.00000000

  Overall HOMO-LUMO gap:      8.65462914 eV.

  Total energy components:
  | Sum of eigenvalues            :         -23.06667587 Ha        -627.67618635 eV
  | XC energy correction          :          -6.78810394 Ha        -184.71370622 eV
  | XC potential correction       :           8.71993260 Ha         237.28143871 eV
  | Free-atom electrostatic energy:         -17.34838213 Ha        -472.07349656 eV
  | Hartree energy correction     :          -2.00257872 Ha         -54.49293945 eV
  | Entropy correction            :          -0.00000000 Ha          -0.00000000 eV
  | ---------------------------
  | Total energy                  :         -40.48580806 Ha       -1101.67488987 eV
  | Total energy, T -> 0          :         -40.48580806 Ha       -1101.67488987 eV  <-- do not rely on this value for anything but (periodic) metals
  | Electronic free energy        :         -40.48580806 Ha       -1101.67488987 eV

  Derived energy quantities:
  | Kinetic energy                :          40.15246403 Ha        1092.60413729 eV
  | Electrostatic energy          :         -73.85016815 Ha       -2009.56532094 eV
  | Energy correction for multipole
  | error in Hartree potential    :          -0.00328137 Ha          -0.08929052 eV
  | Sum of eigenvalues per atom                           :        -125.53523727 eV
  | Total energy (T->0) per atom                          :        -220.33497797 eV  <-- do not rely on this value for anything but (periodic) metals
  | Electronic free energy per atom                       :        -220.33497797 eV

  Self-consistency convergence accuracy:
  | Change of charge density      :  0.7775E-04
  | Change of sum of eigenvalues  :  0.1127E-01 eV
  | Change of total energy        :  0.7558E-06 eV

  End self-consistency iteration #     8       :  max(cpu_time)    wall_clock(cpu1)
  | Time for this iteration                    :        0.212 s           0.215 s
  | Charge density update                      :        0.052 s           0.052 s
  | Density mixing                             :        0.004 s           0.004 s
  | Hartree multipole update                   :        0.004 s           0.003 s
  | Hartree multipole summation                :        0.052 s           0.053 s
  | Integration                                :        0.100 s           0.098 s
  | Solution of K.-S. eqns.                    :        0.004 s           0.004 s
  | Total energy evaluation                    :        0.000 s           0.001 s

  Partial memory accounting:
  | Current value for overall tracked memory usage on task 0  :           0.114 MB
  | Peak value for overall tracked memory usage on task 0     :           0.697 MB after allocating gradient_basis_wave
  | Largest tracked array allocation on task 0 so far         :           0.437 MB  when allocating gradient_basis_wave
  Note:  These values currently only include a subset of arrays which are explicitly tracked.
  The "true" memory usage will be greater.
------------------------------------------------------------

------------------------------------------------------------
          Begin self-consistency iteration #    9

  Date     :  20191112, Time     :  195730.088
------------------------------------------------------------
  Evaluating new KS density.
  Integration grid: deviation in total charge (<rho> - N_e) =   1.065814E-14
  Pulay mixing of updated and previous charge densities.

  Evaluating partitioned Hartree potential by multipole expansion.
  | Analytical far-field extrapolation by fixed multipoles:
  | Hartree multipole sum: apparent total charge =  -0.535195E-06
  Summing up the Hartree potential.
  Time summed over all CPUs for potential: real work        0.145 s, elapsed        0.215 s
  | RMS charge density error from multipole expansion :   0.421551E-02

  Integrating Hamiltonian matrix: batch-based integration.
  Time summed over all CPUs for integration: real work        0.287 s, elapsed        0.368 s

  Updating Kohn-Sham eigenvalues and eigenvectors using ELSI and the ELPA eigensolver.
  ELPA settings:
  | ELPA solver          1
  Finished transformation to standard eigenproblem
  | Time :     0.000 s
  Starting ELPA eigensolver
  | Time full => tridiagonal    :     0.003 s
  | Time solve tridiagonal      :     0.000 s
  | Time ev tridiagonal => full :     0.000 s
  Finished solving standard eigenproblem
  | Time :     0.003 s
  Finished back-transformation of eigenvectors
  | Time :     0.000 s

  Obtaining occupation numbers and chemical potential using ELSI.
  | Chemical potential (Fermi level):    -1.43785335eV
  Highest occupied state (VBM) at     -8.73138677 eV
  | Occupation number:      2.00000000

  Lowest unoccupied state (CBM) at    -0.07677678 eV
  | Occupation number:      0.00000000

  Overall HOMO-LUMO gap:      8.65460999 eV.

  Total energy components:
  | Sum of eigenvalues            :         -23.06666276 Ha        -627.67582961 eV
  | XC energy correction          :          -6.78810726 Ha        -184.71379679 eV
  | XC potential correction       :           8.71993688 Ha         237.28155512 eV
  | Free-atom electrostatic energy:         -17.34838213 Ha        -472.07349656 eV
[...]
  | ---------------------------
  | Total energy                  :         -40.48580806 Ha       -1101.67488989 eV
  | Total energy, T -> 0          :         -40.48580806 Ha       -1101.67488989 eV  <-- do not rely on this value for anything but (periodic) metals
  | Electronic free energy        :         -40.48580806 Ha       -1101.67488989 eV

  Derived energy quantities:
  | Kinetic energy                :          40.15249006 Ha        1092.60484569 eV
  | Electrostatic energy          :         -73.85018966 Ha       -2009.56590635 eV
  | Energy correction for multipole
  | error in Hartree potential    :          -0.00328147 Ha          -0.08929347 eV
  | Sum of eigenvalues per atom                           :        -125.53514768 eV
  | Total energy (T->0) per atom                          :        -220.33497798 eV  <-- do not rely on this value for anything but (periodic) metals
  | Electronic free energy per atom                       :        -220.33497798 eV

  Self-consistency convergence accuracy:
  | Change of charge density      :  0.6228E-06
  | Change of sum of eigenvalues  :  0.1584E-04 eV
  | Change of total energy        : -0.5052E-08 eV

  Writing Kohn-Sham eigenvalues.

  State    Occupation    Eigenvalue [Ha]    Eigenvalue [eV]
      1       2.00000          -9.887028         -269.03972
      2       2.00000          -0.618952          -16.84255
      3       2.00000          -0.361469           -9.83609
      4       2.00000          -0.345008           -9.38814
      5       2.00000          -0.320872           -8.73138
      6       0.00000          -0.002821           -0.07677
      7       0.00000           0.048674            1.32448
      8       0.00000           0.050755            1.38111
      9       0.00000           0.052087            1.41735
     10       0.00000           0.097113            2.64258
     11       0.00000           0.113506            3.08864
     12       0.00000           0.123771            3.36799
     13       0.00000           0.210212            5.72017
     14       0.00000           0.264392            7.19447

  Highest occupied state (VBM) at     -8.73137947 eV
  | Occupation number:      2.00000000

  Lowest unoccupied state (CBM) at    -0.07677169 eV
  | Occupation number:      0.00000000

  Overall HOMO-LUMO gap:      8.65460778 eV.

  Self-consistency cycle converged.

  End self-consistency iteration #    11       :  max(cpu_time)    wall_clock(cpu1)
  | Time for this iteration                    :        0.208 s           0.210 s
  | Charge density update                      :        0.052 s           0.050 s
  | Density mixing                             :        0.004 s           0.014 s
  | Hartree multipole update                   :        0.004 s           0.003 s
  | Hartree multipole summation                :        0.068 s           0.066 s
  | Integration                                :        0.072 s           0.071 s
  | Solution of K.-S. eqns.                    :        0.004 s           0.004 s
  | Total energy evaluation                    :        0.000 s           0.000 s

  Partial memory accounting:
  | Current value for overall tracked memory usage on task 0  :           0.114 MB
  | Peak value for overall tracked memory usage on task 0     :           0.697 MB after allocating gradient_basis_wave
  | Largest tracked array allocation on task 0 so far         :           0.437 MB  when allocating gradient_basis_wave
  Note:  These values currently only include a subset of arrays which are explicitly tracked.
  The "true" memory usage will be greater.
------------------------------------------------------------
  |------------------------------------------
  | Final ELSI Output
  |------------------------------------------
  | Number of basis functions :           99
  | Number of electrons       :         10.0
  | Number of spins           :            1
  | Number of k-points        :            1
  | Number of states          :           14
  | Solver                    :         ELPA
  | Parallel mode             :   MULTI_PROC
  | Matrix format             :  BLACS_DENSE
  | Matrix sparsity           :        0.000
  |------------------------------------------
  | ELSI Project (c)  elsi-interchange.org
  |------------------------------------------
  Obtaining max. number of non-zero basis functions in each batch .
  Evaluating KS electron density on previously omitted grid points.
  Performing Hirshfeld analysis of fragment charges and moments.
  ----------------------------------------------------------------------
  | Atom     1: C
  |   Hirshfeld charge        :     -0.15663050
  |   Free atom volume        :     38.37861207
  |   Hirshfeld volume        :     28.56724753
  |   Hirshfeld dipole vector :      0.00466381      -0.00176648      -0.01702090
  |   Hirshfeld dipole moment :      0.01773647
  |   Hirshfeld second moments:      0.18031988      -0.00217917      -0.00014917
  |                                 -0.00217917       0.17874314      -0.00062960
  |                                 -0.00014917      -0.00062960       0.18023241
  ----------------------------------------------------------------------
  | Atom     2: H
  |   Hirshfeld charge        :      0.03766297
  |   Free atom volume        :     10.31539447
  |   Hirshfeld volume        :      6.05342501
  |   Hirshfeld dipole vector :     -0.06613846       0.05648436      -0.02406241
  |   Hirshfeld dipole moment :      0.09024289
  |   Hirshfeld second moments:      0.10204712       0.00956205      -0.00809839
  |                                  0.00956205       0.10440090       0.00375068
  |                                 -0.00809839       0.00375068       0.11420557
  ----------------------------------------------------------------------
  | Atom     3: H
  |   Hirshfeld charge        :      0.03903068
  |   Free atom volume        :     10.31539447
  |   Hirshfeld volume        :      6.15756647
  |   Hirshfeld dipole vector :     -0.03328471      -0.06753542       0.04182730
  |   Hirshfeld dipole moment :      0.08613030
  |   Hirshfeld second moments:      0.10843147      -0.01006441       0.00061710
  |                                 -0.01006441       0.09245735       0.00604079
  |                                  0.00061710       0.00604079       0.10933647
  ----------------------------------------------------------------------
  | Atom     4: H
  |   Hirshfeld charge        :      0.03516089
  |   Free atom volume        :     10.31539447
  |   Hirshfeld volume        :      6.17107447
  |   Hirshfeld dipole vector :      0.03059143       0.03155254       0.07178797
  |   Hirshfeld dipole moment :      0.08417191
  |   Hirshfeld second moments:      0.10657059      -0.00657954      -0.01049767
  |                                 -0.00657954       0.10421266      -0.00856822
  |                                 -0.01049767      -0.00856822       0.09730971
  ----------------------------------------------------------------------
  | Atom     5: H
  |   Hirshfeld charge        :      0.04477120
  |   Free atom volume        :     10.31539447
  |   Hirshfeld volume        :      5.99256456
  |   Hirshfeld dipole vector :      0.05978717      -0.00844184      -0.07197616
  |   Hirshfeld dipole moment :      0.09394859
  |   Hirshfeld second moments:      0.10762592       0.00076894       0.01081739
  |                                  0.00076894       0.11641107      -0.00364485
  |                                  0.01081739      -0.00364485       0.10414971
  ----------------------------------------------------------------------

  | Many-Body Dispersion (MBD@rsSCS) energy
  | Total dynamic anisotropic polarizability, \alpha_{ij}(iu), (a.u.)
  | -------------------------------------------------------------------
  |      u            xx         yy         zz         yz         xz         xy
  |   0.000000     17.565     17.462     18.433     -0.373     -0.411     -0.094
  |   0.003624     17.564     17.461     18.432     -0.373     -0.411     -0.094
  |   0.019427     17.538     17.435     18.405     -0.373     -0.411     -0.095
  |   0.049278     17.395     17.286     18.254     -0.371     -0.411     -0.098
  |   0.095887     16.937     16.814     17.772     -0.364     -0.412     -0.110
  |   0.163858     15.847     15.692     16.622     -0.345     -0.412     -0.136
  |   0.260739     13.769     13.562     14.412     -0.302     -0.398     -0.177
  |   0.399006     10.595     10.355     11.018     -0.219     -0.337     -0.201
  |   0.600000      6.878      6.690      7.062     -0.113     -0.207     -0.157
  |   0.902242      3.720      3.638      3.770     -0.037     -0.078     -0.068
  |   1.380693      1.744      1.724      1.754     -0.009     -0.018     -0.017
  |   2.197021      0.722      0.719      0.724     -0.001     -0.003     -0.003
  |   3.754417      0.253      0.253      0.253     -0.000     -0.000     -0.000
  |   7.305481      0.067      0.067      0.067     -0.000     -0.000     -0.000
  |  18.530638      0.011      0.011      0.011     -0.000     -0.000     -0.000
  |  99.337689      0.000      0.000      0.000     -0.000     -0.000     -0.000
  | --------------------------------------------------------------
  | Partitioned atomic C6 coefficients and polarizabilities (a.u.)
  | --------------------------------------------------------------
  | ATOM   1  C   31.864243          9.709745
  | ATOM   2  H    1.478267          1.926111
  | ATOM   3  H    1.727868          2.146735
  | ATOM   4  H    1.698535          2.123998
  | ATOM   5  H    1.469015          1.913433
  | --------------------------------------------------------------
  | Computing MBD@rsSCS energy...
  | --------------------------------------------------------------

  Total energy components:
  | Sum of eigenvalues            :         -23.06665941 Ha        -627.67573838 eV
  | XC energy correction          :          -6.78810846 Ha        -184.71382923 eV
  | XC potential correction       :           8.71993843 Ha         237.28159739 eV
  | Free-atom electrostatic energy:         -17.34838213 Ha        -472.07349656 eV
  | Hartree energy correction     :          -2.00259649 Ha         -54.49342311 eV
  | MBD@rsSCS energy              :          -0.00095459 Ha          -0.02597569 eV
  | Entropy correction            :          -0.00000000 Ha          -0.00000000 eV
  | ---------------------------
  | Total energy                  :         -40.48676265 Ha       -1101.70086558 eV
  | Total energy, T -> 0          :         -40.48676265 Ha       -1101.70086558 eV  <-- do not rely on this value for anything but (periodic) metals
  | Electronic free energy        :         -40.48676265 Ha       -1101.70086558 eV

  Derived energy quantities:
  | Kinetic energy                :          40.15249006 Ha        1092.60484569 eV
  | Electrostatic energy          :         -73.85018966 Ha       -2009.56590635 eV
  | Energy correction for multipole
  | error in Hartree potential    :          -0.00328147 Ha          -0.08929347 eV
  | Sum of eigenvalues per atom                           :        -125.53514768 eV
  | Total energy (T->0) per atom                          :        -220.34017312 eV  <-- do not rely on this value for anything but (periodic) metals
  | Electronic free energy per atom                       :        -220.34017312 eV
  Timings for VdW correction (Tkatchenko-Scheffler 2009 or later):
  | CPU time:        0.128 s, Wall clock time:        0.129 s.
  ------------------------------------------------------------
   Computing monopole / dipole moments for complete molecule:
  | Total electronic charge [e]         :          0.100000000000000E+02
  | Total ionic charge [e]              :          0.100000000000000E+02
  | Total charge [e]                    :         -0.888178419700125E-14
  | Total dipole moment [eAng]          :         -0.401158740343528E-02         0.817251576992581E-02         0.524137718974840E-02
  | Absolute dipole moment              :          0.105049932103882E-01 eAng              /                   0.504497690206969E-01 Debye  .

  Energy and forces in a compact form:
  | Total energy uncorrected      :         -0.110170086557538E+04 eV
  | Total energy corrected        :         -0.110170086557538E+04 eV  <-- do not rely on this value for anything but (periodic) metals
  | Electronic free energy        :         -0.110170086557538E+04 eV

  ------------------------------------ 
  Start decomposition of the XC Energy 
  ------------------------------------ 
  X and C from original XC functional choice 
  Hartree-Fock Energy :          0.000000000 Ha              0.000000000 eV
  X Energy            :         -6.490284099 Ha           -176.609616135 eV
  C Energy            :         -0.297824357 Ha             -8.104213097 eV
  Total XC Energy     :         -6.788108456 Ha           -184.713829232 eV
  ------------------------------------ 
  LDA X and C from self-consistent density 
  X Energy LDA        :         -5.848540622 Ha           -159.146887622 eV
  C Energy LDA        :         -0.588097890 Ha            -16.002957798 eV
  ------------------------------------ 
  End decomposition of the XC Energy 
  ------------------------------------ 

------------------------------------------------------------

------------------------------------------------------------------------------
  Final output of selected total energy values:

  The following output summarizes some interesting total energy values
  at the end of a run (AFTER all relaxation, molecular dynamics, etc.).

  | Total energy of the DFT / Hartree-Fock s.c.f. calculation      :          -1101.700865575 eV
  | Final zero-broadening corrected energy (caution - metals only) :          -1101.700865575 eV
  | For reference only, the value of 1 Hartree used in FHI-aims is :             27.211384500 eV

  Before relying on these values, please be sure to understand exactly which
  total energy value is referred to by a given number. Different objects may
  all carry the same name 'total energy'. Definitions:

  Total energy of the DFT / Hartree-Fock s.c.f. calculation:
  | Note that this energy does not include ANY quantities calculated after the
  | s.c.f. cycle, in particular not ANY RPA, MP2, etc. many-body perturbation terms.

  Final zero-broadening corrected energy:
  | For metallic systems only, a broadening of the occupation numbers at the Fermi
  | level can be extrapolated back to zero broadening by an electron-gas inspired
  | formula. For all systems that are not real metals, this value can be
  | meaningless and should be avoided.

------------------------------------------------------------------------------
  Methods described in the following list of references were used in this FHI-aims run.
  If you publish the results, please make sure to cite these reference if they apply.
  FHI-aims is an academic code, and for our developers (often, Ph.D. students
  and postdocs), scientific credit in the community is essential.
  Thank you for helping us!

  For any use of FHI-aims, please cite:

    Volker Blum, Ralf Gehrke, Felix Hanke, Paula Havu, Ville Havu,
    Xinguo Ren, Karsten Reuter, and Matthias Scheffler
    'Ab initio molecular simulations with numeric atom-centered orbitals'
    Computer Physics Communications 180, 2175-2196 (2009)
    http://dx.doi.org/10.1016/j.cpc.2009.06.022


  The scalable eigensolver library ELPA was used in your run.
  ELPA is essential especially for large systems on hundreds or thousands of CPUs.
  For ELPA, please cite:

    Andreas Marek, Volker Blum, Rainer Johanni, Ville Havu, Bruno Lang,
    Thomas Auckenthaler, Alexander Heinecke, Hans-Joachim Bungartz, and Hermann Lederer,
    'The ELPA Library - Scalable Parallel Eigenvalue Solutions
    for Electronic Structure Theory and Computational Science'
    The Journal of Physics: Condensed Matter 26, 213201 (2014).
    http://dx.doi.org/10.1088/0953-8984/26/21/213201


  The ELSI infrastructure was used in your run to solve the Kohn-Sham electronic structure.
  Please check out http://elsi-interchange.org to learn more.
  If scalability is important for your project, please acknowledge ELSI by citing:

    V. W-z. Yu, F. Corsetti, A. Garcia, W. P. Huhn, M. Jacquelin, W. Jia,
    B. Lange, L. Lin, J. Lu, W. Mi, A. Seifitokaldani, A. Vazquez-Mayagoitia,
    C. Yang, H. Yang, and V. Blum
    'ELSI: A unified software interface for Kohn-Sham electronic structure solvers'
    Computer Physics Communications 222, 267-285 (2018).
    http://dx.doi.org/10.1016/j.cpc.2017.09.007


  For the real-space grid partitioning and parallelization used in this calculation, please cite:

    Ville Havu, Volker Blum, Paula Havu, and Matthias Scheffler,
    'Efficient O(N) integration for all-electron electronic structure calculation'
    'using numerically tabulated basis functions'
    Journal of Computational Physics 228, 8367-8379 (2009).
    http://dx.doi.org/10.1016/j.jcp.2009.08.008

  Of course, there are many other important community references, e.g., those cited in the
  above references. Our list is limited to references that describe implementations in the
  FHI-aims code. The reason is purely practical (length of this list) - please credit others as well.

------------------------------------------------------------
          Leaving FHI-aims.
          Date     :  20191112, Time     :  195730.858

          Computational steps:
          | Number of self-consistency cycles          :           11
          | Number of SCF (re)initializations          :            1

          Detailed time accounting                     :  max(cpu_time)    wall_clock(cpu1)
          | Total time                                 :        2.640 s           2.826 s
          | Preparation time                           :        0.088 s           0.107 s
          | Boundary condition initalization           :        0.000 s           0.001 s
          | Grid partitioning                          :        0.044 s           0.042 s
          | Preloading free-atom quantities on grid    :        0.008 s           0.007 s
          | Free-atom superposition energy             :        0.012 s           0.012 s
          | Total time for integrations                :        1.060 s           1.057 s
          | Total time for solution of K.-S. equations :        0.052 s           0.033 s
          | Total time for density update              :        0.620 s           0.617 s
          | Total time for mixing                      :        0.064 s           0.090 s
          | Total time for Hartree multipole update    :        0.072 s           0.066 s
          | Total time for Hartree multipole sum       :        0.552 s           0.549 s
          | Total time for total energy evaluation     :        0.000 s           0.009 s
          | Total time for scaled ZORA corrections     :        0.000 s           0.000 s
          | Total time for vdW correction              :        0.128 s           0.129 s

          Partial memory accounting:
          | Residual value for overall tracked memory usage across tasks :           0.000 MB (should be 0.000 MB)
          | Peak values for overall tracked memory usage (after allocating gradient_basis_wave):
          |   Minimum:        0.690 MB (on task 4)
          |   Maximum:        0.697 MB (on task 1)
          |   Average:        0.694 MB
          | Largest tracked array allocation (gradient_basis_wave):
          |   Minimum:        0.437 MB (on task 1)
          |   Maximum:        0.437 MB (on task 1)
          |   Average:        0.437 MB
          Note:  These values currently only include a subset of arrays which are explicitly tracked.
          The "true" memory usage will be greater.

          Have a nice day.
------------------------------------------------------------
