  MPI-parallelism will be employed.
------------------------------------------------------------
          Invoking FHI-aims ...
          Version 171221_1
          Compiled on 2019/08/20 at 16:40:07 on host core401.

          When using FHI-aims, please cite the following reference:

          Volker Blum, Ralf Gehrke, Felix Hanke, Paula Havu,
          Ville Havu, Xinguo Ren, Karsten Reuter, and Matthias Scheffler,
          'Ab Initio Molecular Simulations with Numeric Atom-Centered Orbitals',
          Computer Physics Communications 180, 2175-2196 (2009)

          For any questions about FHI-aims, please visit the aimsclub website
          with its forums and wiki. Contributions to both the forums and the
          wiki are warmly encouraged - they are for you, and everyone is welcome there.

------------------------------------------------------------



  Date     :  20200522, Time     :  174441.439
  Time zero on CPU 1             :   0.120000000000000E-01  s.
  Internal wall clock time zero  :           359401481.439  s.

  FHI-aims created a unique identifier for this run for later identification
  aims_uuid : 9A5897F4-443C-470B-ADB0-FCCA389F9933

  Using        4 parallel tasks.
  Task        0 on host core401 reporting.
  Task        1 on host core401 reporting.
  Task        2 on host core401 reporting.
  Task        3 on host core401 reporting.

  Performing system and environment tests:
  *** Environment variable OMP_NUM_THREADS is not set
  *** For performance reasons you might want to set it to 1
  | Maximum stacksize for task 0: unlimited
  | Maximum stacksize for task 1: unlimited
  | Maximum stacksize for task 2: unlimited
  | Maximum stacksize for task 3: unlimited
  | Current stacksize for task 0: unlimited
  | Current stacksize for task 1: unlimited
  | Current stacksize for task 2: unlimited
  | Current stacksize for task 3: unlimited
  | Checking for scalapack...
  | Testing pdtran()...
  | All pdtran() tests passed.

  Obtaining array dimensions for all initial allocations:
  
  -----------------------------------------------------------------------
  Parsing control.in (first pass over file, find array dimensions only).
  The contents of control.in will be repeated verbatim below
  unless switched off by setting 'verbatim_writeout .false.' .
  in the first line of control.in .
  -----------------------------------------------------------------------
  
  #########################################################################################
  #
  #   input file control.in tight for scaling studies
  #
  #########################################################################################
  #
  #  Physical model
  #
    xc                 pbe
  #  vdw_correction_hirshfeld
    many_body_dispersion vacuum=.true.:.true.:.true.
    spin               none
    relativistic       atomic_zora scalar
    charge             0.
  #  k_grid 1 1 1
  #
  #  SCF convergence
  #
    occupation_type    gaussian 0.1
    mixer              pulay
      n_max_pulay        5
      charge_mix_param   0.3
      sc_iter_limit      100
  #
    output             dipole
  #  collect_eigenvectors .false.
  #  use_local_index .false.
  #  use_alltoall .false.
  #  elpa_settings two_step_solver
  #  output elpa_timings
  #
  ################################################################################
  #
  #  FHI-aims code project
  #  VB, Fritz-Haber Institut, 2009
  #
  #  Suggested "tight" defaults for C atom (to be pasted into control.in file)
  #
  ################################################################################
    species        C
  #     global species definitions
      nucleus             6
      mass                12.0107
  #
      l_hartree           6
  #
      cut_pot             4.0  2.0  1.0
      basis_dep_cutoff    1e-4
  #
      radial_base         34 7.0
      radial_multiplier   2
      angular_grids specified
        division   0.2187   50
        division   0.4416  110
        division   0.6335  194
        division   0.7727  302
        division   0.8772  434
  #      division   0.9334  590
  #      division   0.9924  770
  #      division   1.0230  974
  #      division   1.5020 1202
  #     outer_grid  974
        outer_grid  434
  ################################################################################
  #
  #  Definition of "minimal" basis
  #
  ################################################################################
  #     valence basis states
      valence      2  s   2.
      valence      2  p   2.
  #     ion occupancy
      ion_occ      2  s   1.
      ion_occ      2  p   1.
  ################################################################################
  #
  #  Suggested additional basis functions. For production calculations,
  #  uncomment them one after another (the most important basis functions are
  #  listed first).
  #
  #  Constructed for dimers: 1.0 A, 1.25 A, 1.5 A, 2.0 A, 3.0 A
  #
  ################################################################################
  #  "First tier" - improvements: -1214.57 meV to -155.61 meV
       hydro 2 p 1.7
       hydro 3 d 6
       hydro 2 s 4.9
  #  "Second tier" - improvements: -67.75 meV to -5.23 meV
       hydro 4 f 9.8
       hydro 3 p 5.2
       hydro 3 s 4.3
       hydro 5 g 14.4
       hydro 3 d 6.2
  #  "Third tier" - improvements: -2.43 meV to -0.60 meV
  #     hydro 2 p 5.6
  #     hydro 2 s 1.4
  #     hydro 3 d 4.9
  #     hydro 4 f 11.2
  #  "Fourth tier" - improvements: -0.39 meV to -0.18 meV
  #     hydro 2 p 2.1
  #     hydro 5 g 16.4
  #     hydro 4 d 13.2
  #     hydro 3 s 13.6
  #     hydro 4 f 17.6
  #  Further basis functions - improvements: -0.08 meV and below
  #     hydro 3 s 2
  #     hydro 3 p 6
  #     hydro 4 d 20
  
  ################################################################################
  #
  #  FHI-aims code project
  #  VB, Fritz-Haber Institut, 2009
  #
  #  Suggested "tight" defaults for H atom (to be pasted into control.in file)
  #
  ################################################################################
    species        H
  #     global species definitions
      nucleus             1
      mass                1.00794
  #
      l_hartree           6
  #
      cut_pot             4.0  2.0  1.0
      basis_dep_cutoff    1e-4
  #
      radial_base         24 7.0
      radial_multiplier   2
      angular_grids       specified
        division   0.1930   50
        division   0.3175  110
        division   0.4293  194
        division   0.5066  302
        division   0.5626  434
  #      division   0.5922  590
  #      division   0.6227  974
  #      division   0.6868 1202
  #      outer_grid  770
        outer_grid  434
  ################################################################################
  #
  #  Definition of "minimal" basis
  #
  ################################################################################
  #     valence basis states
      valence      1  s   1.
  #     ion occupancy
      ion_occ      1  s   0.5
  ################################################################################
  #
  #  Suggested additional basis functions. For production calculations,
  #  uncomment them one after another (the most important basis functions are
  #  listed first).
  #
  #  Basis constructed for dimers: 0.5 A, 0.7 A, 1.0 A, 1.5 A, 2.5 A
  #
  ################################################################################
  #  "First tier" - improvements: -1014.90 meV to -62.69 meV
       hydro 2 s 2.1
       hydro 2 p 3.5
  #  "Second tier" - improvements: -12.89 meV to -1.83 meV
       hydro 1 s 0.85
       hydro 2 p 3.7
       hydro 2 s 1.2
       hydro 3 d 7
  #  "Third tier" - improvements: -0.25 meV to -0.12 meV
  #     hydro 4 f 11.2
  #     hydro 3 p 4.8
  #     hydro 4 d 9
  #     hydro 3 s 3.2
  ################################################################################
  #
  #  FHI-aims code project
  #  Volker Blum, Fritz Haber Institute Berlin, 2009
  #
  #  Suggested "tight" defaults for Si atom (to be pasted into control.in file)
  #
  #  Revised Jan 04, 2011, following tests (SiC) done by Lydia Nemec:
  #     d and g functions of tier 2 now enabled by default.
  #
  ################################################################################
  #  species        Si
  #     global species definitions
  #    nucleus             14
  #    mass                28.0855
  #
  #    l_hartree           6
  #
  #    cut_pot             4.0          2.0  1.0
  #    basis_dep_cutoff    1e-4
  #
  #    radial_base         42 7.0
  #    radial_multiplier   2
  #    angular_grids       specified
  #      division   0.4121   50
  #      division   0.7665  110
  #      division   1.0603  194
  #      division   1.2846  302
  #      division   1.4125  434
  #      division   1.4810  590
  #      division   1.5529  770
  #      division   1.6284  974
  #      division   2.6016 1202
  #      outer_grid   974
  #      outer_grid  434
  ################################################################################
  #
  #  Definition of "minimal" basis
  #
  ################################################################################
  #     valence basis states
  #    valence      3  s   2.
  #    valence      3  p   2.
  #     ion occupancy
  #    ion_occ      3  s   1.
  #    ion_occ      3  p   1.
  ################################################################################
  #
  #  Suggested additional basis functions. For production calculations,
  #  uncomment them one after another (the most important basis functions are
  #  listed first).
  #
  #  Constructed for dimers: 1.75 A, 2.0 A, 2.25 A, 2.75 A, 3.75 A
  #
  ################################################################################
  #  "First tier" - improvements: -571.96 meV to -37.03 meV
  #     hydro 3 d 4.2
  #     hydro 2 p 1.4
  #     hydro 4 f 6.2
  #     ionic 3 s auto
  #  "Second tier" - improvements: -16.76 meV to -3.03 meV
  #     hydro 3 d 9
  #     hydro 5 g 9.4
  #     hydro 4 p 4
  #     hydro 1 s 0.65
  #  "Third tier" - improvements: -3.89 meV to -0.60 meV
  #     ionic 3 d auto
  #     hydro 3 s 2.6
  #     hydro 4 f 8.4
  #     hydro 3 d 3.4
  #     hydro 3 p 7.8
  #  "Fourth tier" - improvements: -0.33 meV to -0.11 meV
  #     hydro 2 p 1.6
  #     hydro 5 g 10.8
  #     hydro 5 f 11.2
  #     hydro 3 d 1
  #     hydro 4 s 4.5
  #  Further basis functions that fell out of the optimization - noise
  #  level... < -0.08 meV
  #     hydro 4 d 6.6
  #     hydro 5 g 16.4
  #     hydro 4 d 9
  
  
  
  -----------------------------------------------------------------------
  Completed first pass over input file control.in .
  -----------------------------------------------------------------------
  
  
  -----------------------------------------------------------------------
  Parsing geometry.in (first pass over file, find array dimensions only).
  The contents of geometry.in will be repeated verbatim below
  unless switched off by setting 'verbatim_writeout .false.' .
  in the first line of geometry.in .
  -----------------------------------------------------------------------
  
  atom 0.0 0.0 0.0 C
  atom 0.6287614522 0.6287614522 0.6287614522 H
  atom -0.6287614522 -0.6287614522 0.6287614522 H
  atom -0.6287614522 0.6287614522 -0.6287614522 H
  atom 0.6287614522 -0.6287614522 -0.6287614522 H
  
  -----------------------------------------------------------------------
  Completed first pass over input file geometry.in .
  -----------------------------------------------------------------------
  

  Basic array size parameters:
  | Number of species                 :        2
  | Number of atoms                   :        5
  | Max. basis fn. angular momentum   :        4
  | Max. atomic/ionic basis occupied n:        2
  | Max. number of basis fn. types    :        2
  | Max. radial fns per species/type  :        8
  | Max. logarithmic grid size        :     1277
  | Max. radial integration grid size :       69
  | Max. angular integration grid size:      434
  | Max. angular grid division number :        8
  | Radial grid for Hartree potential :     1277
  | Number of spin channels           :        1

------------------------------------------------------------
          Reading file control.in.
------------------------------------------------------------
  XC: Using PBE gradient-corrected functionals.
  Using the default MBD implementation with analytical forces
  Spin treatment: No spin polarisation.
  Scalar relativistic treatment of kinetic energy: on-site free-atom approximation to ZORA.
  Charge =   0.000000E+00: Neutral system requested explicitly.
  Occupation type: Gaussian broadening, width =   0.100000E+00 eV.
  Using pulay charge density mixing.
  Pulay mixing - number of memorized iterations:    5
  Charge density mixing - mixing parameter:     0.3000
  Maximum number of s.-c. iterations  :   100
  Dipole moment will be written out.
 
  Reading configuration options for species C                   .
  | Found nuclear charge :   6.0000
  | Found atomic mass :    12.0107000000000      amu
  | Found l_max for Hartree potential  :   6
  | Found cutoff potl. onset [A], width [A], scale factor :    4.00000    2.00000    1.00000
  | Threshold for basis-dependent cutoff potential is   0.100000E-03
  | Found data for basic radial integration grid :    34 points, outermost radius =    7.000 A
  | Found multiplier for basic radial grid :   2
  | Found angular grid specification: user-specified.
  | Specified grid contains     6 separate shells.
  | Check grid settings after all constraints further below.
  | Found free-atom valence shell :  2 s   2.000
  | Found free-atom valence shell :  2 p   2.000
  | No ionic wave fns used. Skipping ion_occ.
  | No ionic wave fns used. Skipping ion_occ.
  | Found hydrogenic basis function :  2 p   1.700
  | Found hydrogenic basis function :  3 d   6.000
  | Found hydrogenic basis function :  2 s   4.900
  | Found hydrogenic basis function :  4 f   9.800
  | Found hydrogenic basis function :  3 p   5.200
  | Found hydrogenic basis function :  3 s   4.300
  | Found hydrogenic basis function :  5 g  14.400
  | Found hydrogenic basis function :  3 d   6.200
  Species C                   : Missing cutoff potential type.
  Defaulting to exp(1/x)/(1-x)^2 type cutoff potential.
  Species C : No 'logarithmic' tag. Using default grid for free atom:
  | Default logarithmic grid data [bohr] : 0.1000E-03 0.1000E+03 0.1012E+01
  Species C : On-site basis accuracy parameter (for Gram-Schmidt orthonormalisation) not specified.
  Using default value basis_acc =  0.1000000E-03.
  Species C                   : Using default innermost maximum threshold i_radial=  2 for radial functions.
  Species C                   : Default cutoff onset for free atom density etc. : 0.40000000E+01 AA.
  Species C                   : Basic radial grid will be enhanced according to radial_multiplier =   2, to contain    69 grid points.
 
  Reading configuration options for species H                   .
  | Found nuclear charge :   1.0000
  | Found atomic mass :    1.00794000000000      amu
  | Found l_max for Hartree potential  :   6
  | Found cutoff potl. onset [A], width [A], scale factor :    4.00000    2.00000    1.00000
  | Threshold for basis-dependent cutoff potential is   0.100000E-03
  | Found data for basic radial integration grid :    24 points, outermost radius =    7.000 A
  | Found multiplier for basic radial grid :   2
  | Found angular grid specification: user-specified.
  | Specified grid contains     6 separate shells.
  | Check grid settings after all constraints further below.
  | Found free-atom valence shell :  1 s   1.000
  | No ionic wave fns used. Skipping ion_occ.
  | Found hydrogenic basis function :  2 s   2.100
  | Found hydrogenic basis function :  2 p   3.500
  | Found hydrogenic basis function :  1 s   0.850
  | Found hydrogenic basis function :  2 p   3.700
  | Found hydrogenic basis function :  2 s   1.200
  | Found hydrogenic basis function :  3 d   7.000
  Species H                   : Missing cutoff potential type.
  Defaulting to exp(1/x)/(1-x)^2 type cutoff potential.
  Species H : No 'logarithmic' tag. Using default grid for free atom:
  | Default logarithmic grid data [bohr] : 0.1000E-03 0.1000E+03 0.1012E+01
  Species H : On-site basis accuracy parameter (for Gram-Schmidt orthonormalisation) not specified.
  Using default value basis_acc =  0.1000000E-03.
  Species H                   : Using default innermost maximum threshold i_radial=  2 for radial functions.
  Species H                   : Default cutoff onset for free atom density etc. : 0.40000000E+01 AA.
  Species H                   : Basic radial grid will be enhanced according to radial_multiplier =   2, to contain    49 grid points.
 
  Finished reading input file 'control.in'. Consistency checks are next.
 
  MPI_IN_PLACE appears to work with this MPI implementation.
  | Keeping use_mpi_in_place .true. (see manual).
  Target number of points in a grid batch is not set. Defaulting to  100
  Method for grid partitioning is not set. Defaulting to parallel hash+maxmin partitioning.
  Batch size limit is not set. Defaulting to    200
  By default, will store active basis functions for each batch.
  If in need of memory, prune_basis_once .false. can be used to disable this option.
  communication_type for Hartree potential was not specified.
  Defaulting to calc_hartree .
  Pulay mixer: Number of initial linear mixing iterations not set.
  Defaulting to    0 iterations.
  Work space size for distributed Hartree potential not set.
  Defaulting to   0.200000E+03 MB.
  Algorithm-dependent basis array size parameters:
  | n_max_pulay                         :        5
 * Notice: The s.c.f. convergence criterion sc_accuracy_rho was not provided.
 * We used to stop in this case, and ask the user to provide reasonable
 * scf convergence criteria. However, this led some users to employ criteria
 * that led to extremely long run times, e.g., for simple relaxation.
 * We now preset a default value for sc_accuracy_rho if it is not set.
 * You may still wish to check if this setting is too tight or too loose for your needs.
 * Based on n_atoms, FHI-aims chose sc_accuracy_rho =  0.100000E-05 .
  Presetting      1001 iterations before the initial mixing cycle
  is restarted anyway using the sc_init_iter criterion / keyword.
  Presetting a factor      1.000 between actual scf density residual
  and density convergence criterion sc_accuracy_rho below which sc_init_iter
  takes no effect.
 * No s.c.f. convergence criteria (sc_accuracy_*) were provided in control.in.
 * The run will proceed with a reasonable default guess, but please check whether.
 * the s.c.f. cycles seem to take too much or too little time.
  Calculation of forces was not defined in control.in. No forces will be calculated.
  Geometry relaxation not requested: no relaxation will be performed.
  No accuracy limit for integral partition fn. given. Defaulting to  0.1000E-14.
  No threshold value for u(r) in integrations given. Defaulting to  0.1000E-05.
  No accuracy for occupation numbers given. Defaulting to  0.1000E-12.
  No threshold value for occupation numbers given. Defaulting to  0.0000E+00.
  No accuracy for fermi level given. Defaulting to  0.1000E-19.
  Maximum # of iterations to find E_F not set. Defaulting to  200.
  Preferred method for the eigenvalue solver ('KS_method') not specified in 'control.in'.
  Calling BLACS routine to test compilation state
  Since ScaLAPACK support is enabled, defaulting to 'elsi'.
  Will not use alltoall communication since running on < 1024 CPUs.
  Threshold for basis singularities not set.
  Default threshold for basis singularities:  0.1000E-04
  partition_type (choice of integration weights) for integrals was not specified.
  | Using a version of the partition function of Stratmann and coworkers ('stratmann_smoother').
  | At each grid point, the set of atoms used to build the partition table is smoothly restricted to
  | only those atoms whose free-atom density would be non-zero at that grid point.
  Partitioning for Hartree potential was not defined. Using partition_type for integrals.
  | Adjusted default value of keyword multip_moments_threshold to:       0.10000000E-11
  | This value may affect high angular momentum components of the Hartree potential in periodic systems.
  No q(lm)/r^(l+1) cutoff set for long-range Hartree potential.
  | Using default value of  0.100000E-09 .
  | Verify using the multipole_threshold keyword.
  Defaulting to new monopole extrapolation.
  Density update method: automatic selection selected.
------------------------------------------------------------


------------------------------------------------------------
          Reading geometry description geometry.in.
------------------------------------------------------------
  Input structure read successfully.
  The structure contains        5 atoms,  and a total of         10.000 electrons.

  Input geometry:
  | No unit cell requested.
  | Atomic structure:
  |       Atom                x [A]            y [A]            z [A]
  |    1: Species C             0.00000000        0.00000000        0.00000000
  |    2: Species H             0.62876145        0.62876145        0.62876145
  |    3: Species H            -0.62876145       -0.62876145        0.62876145
  |    4: Species H            -0.62876145        0.62876145       -0.62876145
  |    5: Species H             0.62876145       -0.62876145       -0.62876145
  |

  | The smallest distance between any two atoms is         1.08904678 AA.
  |
  | The first atom of this pair is atom number                      1 .
  | The second atom of this pair is atom number                     2 .

  Number of empty states per atom not set in control.in - providing a guess from actual geometry.
  | Total number of empty states used during s.c.f. cycle:        9
  If you use a very high smearing, use empty_states (per atom!) in control.in to increase this value.

  Structure-dependent array size parameters: 
  | Maximum number of distinct radial functions  :       18
  | Maximum number of basis functions            :       99
  | Number of Kohn-Sham states (occupied + empty):       14
------------------------------------------------------------

------------------------------------------------------------
          Preparing all fixed parts of the calculation.
------------------------------------------------------------
  Determining machine precision:
    2.225073858507201E-308
  Setting up grids for atomic and cluster calculations.

  Creating wave function, potential, and density for free atoms.

  Species: C

  List of occupied orbitals and eigenvalues:
    n    l              occ      energy [Ha]    energy [eV]
    1    0           2.0000       -10.049212      -273.4530
    2    0           2.0000        -0.504761       -13.7352
    2    1           2.0000        -0.193631        -5.2690


  Species: H

  List of occupied orbitals and eigenvalues:
    n    l              occ      energy [Ha]    energy [eV]
    1    0           1.0000        -0.238386        -6.4868

  Creating fixed part of basis set: Ionic, confined, hydrogenic.
 
  C                    hydrogenic:
 
  List of hydrogenic basis orbitals: 
    n    l      effective z      eigenvalue [eV]  inner max. [A]     outer max. [A]     outer radius [A]   
    2    1         1.700000        -9.8152           1.245706           1.245706           5.401630
    3    2         6.000000       -54.4226           0.792453           0.792453           4.178599
    2    0         4.900000       -81.6681           0.082559           0.562749           3.353238
    4    3         9.800000       -81.6681           0.863254           0.863254           4.028125
    3    1         5.200000       -40.8774           0.305389           1.215618           4.898362
    3    0         4.300000       -27.9508           0.091041           1.610311           5.401630
    5    4        14.400000      -112.8510           0.917666           0.917666           3.883070
    3    2         6.200000       -58.1113           0.763917           0.763917           4.077671
 
 
  H                    hydrogenic:
 
  List of hydrogenic basis orbitals: 
    n    l      effective z      eigenvalue [eV]  inner max. [A]     outer max. [A]     outer radius [A]   
    2    0         2.100000       -14.9965           0.193243           1.317208           5.373006
    2    1         3.500000       -41.6672           0.602369           0.602369           4.056063
    1    0         0.850000        -9.8292           0.624871           0.624871           5.373006
    2    1         3.700000       -46.5653           0.573622           0.573622           3.910002
    2    0         1.200000        -4.5995           0.334980           2.228188           5.505995
    3    2         7.000000       -74.0753           0.680699           0.680699           3.769201
 

  Adding cutoff potential to free-atom effective potential.
  Creating atomic-like basis functions for current effective potential.

  Species C                   :

  List of atomic basis orbitals and eigenvalues:
    n    l      energy [Ha]    energy [eV]    outer radius [A]
    1    0       -10.049212      -273.4530       1.934409
    2    0        -0.504761       -13.7352       5.271162
    2    1        -0.193631        -5.2690       5.401630


  Species H                   :

  List of atomic basis orbitals and eigenvalues:
    n    l      energy [Ha]    energy [eV]    outer radius [A]
    1    0        -0.238386        -6.4868       5.373006

  Assembling full basis from fixed parts.
  | Species C :   atomic orbital   1 s accepted.
  | Species C :    hydro orbital   2 s accepted.
  | Species C :   atomic orbital   2 s accepted.
  | Species C :    hydro orbital   3 s accepted.
  | Species C :    hydro orbital   3 p accepted.
  | Species C :   atomic orbital   2 p accepted.
  | Species C :    hydro orbital   2 p accepted.
  | Species C :    hydro orbital   3 d accepted.
  | Species C :    hydro orbital   3 d accepted.
  | Species C :    hydro orbital   4 f accepted.
  | Species C :    hydro orbital   5 g accepted.
  | Species H :   atomic orbital   1 s accepted.
  | Species H :    hydro orbital   2 s accepted.
  | Species H :    hydro orbital   1 s accepted.
  | Species H :    hydro orbital   2 s accepted.
  | Species H :    hydro orbital   2 p accepted.
  | Species H :    hydro orbital   2 p accepted.
  | Species H :    hydro orbital   3 d accepted.
 
  Basis size parameters after reduction:
  | Total number of radial functions:       18
  | Total number of basis functions :       99
 
  Per-task memory consumption for arrays in subroutine allocate_ext:
  |           5.887940MB.
  Testing on-site integration grid accuracy.
  |  Species  Function  <phi|h_atom|phi> (log., in eV)  <phi|h_atom|phi> (rad., in eV)
           1        1               -273.4529725981               -273.4529710451
           1        2                -10.7721037329                -10.7721022102
           1        3                 17.6044132585                 17.6044162052
           1        4                 53.7706460564                 53.7706913681
           1        5                 15.0973290351                 15.0973256011
           1        6                  3.8545134677                  3.8545724657
           1        7                 12.1156992586                 12.1182024423
           1        8                 29.4352039288                 29.4352041805
           1        9                 54.8741144697                 54.8740268719
           1       10                 59.3556032036                 59.3556031370
           1       11                 93.4551837140                 93.4551837996
           2       12                 -6.4870767962                 -6.4871688290
           2       13                 13.5032046589                 13.5028982997
           2       14                 32.8195184817                 32.8119941656
           2       15                 33.8513856511                 33.7670005767 ***
           2       16                 28.8544614965                 28.8544615203
           2       17                 59.6326952547                 59.6327656460
           2       18                 60.2719308513                 60.2719305949
 * Note: Onsite integrals marked "***" above are less accurate than
 * onsite_accuracy_threshold =    0.03000 eV. Usually, this is harmless.
 * When in doubt, tighten the "radial" and/or "radial_multiplier" flags to check.

  Preparing densities etc. for the partition functions (integrals / Hartree potential).

  Preparations completed.
  max(cpu_time)          :      0.092 s.
  Wall clock time (cpu1) :      0.169 s.
------------------------------------------------------------

------------------------------------------------------------
          Begin self-consistency loop: Initialization.

          Date     :  20200522, Time     :  174442.287
------------------------------------------------------------

  Initializing index lists of integration centers etc. from given atomic structure:
  | Number of centers in hartree potential         :         5
  | Number of centers in hartree multipole         :         5
  | Number of centers in electron density summation:         5
  | Number of centers in basis integrals           :         5
  | Number of centers in integrals                 :         5
  | Number of centers in hamiltonian               :         5
  * Using 4 tasks for Scalapack Eigenvalue solver.
  Detailed listing of tasks and assigned k-points:
  (for non-periodic systems, the "k-point" denotes an internal label only)
   Task     0 k-point     1 on core401
   Task     1 k-point     1 on core401
   Task     2 k-point     1 on core401
   Task     3 k-point     1 on core401
  Tasks:     4 split into      2 X      2 BLACS grid
  Calculating block size based on n_basis =           99 max_nprow =            2 max_npcol =            2
  ScaLAPACK block size set to:           16
  Allocating        0.021 MB for ovlp
  Allocating        0.021 MB for ham
  Allocating        0.021 MB for eigenvec
  Required Scalapack workspace - INTEGER:            1 REAL:             1
  Partitioning the integration grid into batches with parallel hashing+maxmin method.
  | Number of batches:      968
  | Maximal batch size:     155
  | Minimal batch size:      69
  | Average batch size:      78.386
  | Standard deviation of batch sizes:      17.445

  Integration load balanced across     4 MPI tasks.
  Work distribution over tasks is as follows:
  Task     0 has      19010 integration points.
  Task     1 has      19036 integration points.
  Task     2 has      18938 integration points.
  Task     3 has      18894 integration points.
  Initializing partition tables, free-atom densities, potentials, etc. across the integration grid (initialize_grid_storage).
  | initialize_grid_storage: Actual outermost partition radius vs. multipole_radius_free
  | (-- VB: in principle, multipole_radius_free should be larger, hence this output)
  | Species        1: Confinement radius =              6.000000000000000 AA, multipole_radius_free =              6.029870734432609 AA.
  | Species        1: outer_partition_radius set to              6.029870734432609 AA .
  | Species        2: Confinement radius =              6.000000000000000 AA, multipole_radius_free =              6.071692442739658 AA.
  | Species        2: outer_partition_radius set to              6.071692442739658 AA .
  | Original list of interatomic distances with           5 x          5 entries is created.
  | Net number of integration points:    75878
  | of which are non-zero points    :    65350
  Renormalizing the initial density to the exact electron count on the 3D integration grid.
  | Initial density: Formal number of electrons (from input files) :      10.0000000000
  | Integrated number of electrons on 3D grid     :      10.0000057506
  | Charge integration error                      :       0.0000057506
  | Normalization factor for density and gradient :       0.9999994249
  Obtaining max. number of non-zero basis functions in each batch (get_n_compute_maxes).
  | Maximal number of non-zero basis functions:       99 in task     0
  | Maximal number of non-zero basis functions:       99 in task     1
  | Maximal number of non-zero basis functions:       99 in task     2
  | Maximal number of non-zero basis functions:       99 in task     3
  Selecting the method for density update.
  Loop over occupied states selected for charge density update.
  Allocating        0.011 MB for KS_eigenvector
  Integrating Hamiltonian matrix: batch-based integration.
  Time summed over all CPUs for integration: real work        0.376 s, elapsed        0.510 s => Consider using load balancing!
  Integrating overlap matrix.
  Time summed over all CPUs for integration: real work        0.120 s, elapsed        0.192 s
  Deallocating overlap matrix.

  Updating Kohn-Sham eigenvalues and eigenvectors using ELSI and the ELPA eigensolver.
  ELPA settings:
  | ELPA solver          1
  | Time full => band           :     0.000 s
  | Time band => tridiagonal    :     0.000 s
  | Time solve tridiagonal      :     0.000 s
  Overlap matrix is nonsingular
  | Lowest eigenvalue of overlap  :  0.20E-03
  | Highest eigenvalue of overlap :  0.45E+01
  Finished singularity check of overlap matrix
  | Time :     0.002 s
  Finished Cholesky decomposition
  | Time :     0.000 s
  Finished transformation to standard eigenproblem
  | Time :     0.000 s
  Starting ELPA eigensolver
  | Time full => tridiagonal    :     0.001 s
  | Time solve tridiagonal      :     0.000 s
  | Time ev tridiagonal => full :     0.000 s
  Finished solving standard eigenproblem
  | Time :     0.001 s
  Finished back-transformation of eigenvectors
  | Time :     0.000 s

  Obtaining occupation numbers and chemical potential using ELSI.
  | Chemical potential (Fermi level):   -12.26853543eV
  Writing Kohn-Sham eigenvalues.

  State    Occupation    Eigenvalue [Ha]    Eigenvalue [eV]
      1       2.00000         -10.190522         -277.29821
      2       2.00000          -0.835277          -22.72905
      3       2.00000          -0.539422          -14.67841
      4       2.00000          -0.539422          -14.67841
      5       2.00000          -0.539422          -14.67841
      6       0.00000          -0.052532           -1.42948
      7       0.00000           0.000115            0.00313
      8       0.00000           0.000115            0.00313
      9       0.00000           0.000115            0.00313
     10       0.00000           0.044641            1.21475
     11       0.00000           0.044641            1.21475
     12       0.00000           0.044641            1.21475
     13       0.00000           0.150368            4.09173
     14       0.00000           0.198450            5.40011

  Highest occupied state (VBM) at    -14.67841391 eV
  | Occupation number:      2.00000000

  Lowest unoccupied state (CBM) at    -1.42948116 eV
  | Occupation number:      0.00000000

  Overall HOMO-LUMO gap:     13.24893275 eV.
  Calculating total energy contributions from superposition of free atom densities.

  Total energy components:
  | Sum of eigenvalues            :         -25.28812930 Ha        -688.12500977 eV
  | XC energy correction          :          -6.49636727 Ha        -176.77514753 eV
  | XC potential correction       :           8.34472005 Ha         227.07138594 eV
  | Free-atom electrostatic energy:         -17.18446890 Ha        -467.61319059 eV
  | Hartree energy correction     :           0.00000000 Ha           0.00000000 eV
  | Entropy correction            :          -0.00000000 Ha          -0.00000000 eV
  | ---------------------------
  | Total energy                  :         -40.62424541 Ha       -1105.44196196 eV
  | Total energy, T -> 0          :         -40.62424541 Ha       -1105.44196196 eV  <-- do not rely on this value for anything but (periodic) metals
  | Electronic free energy        :         -40.62424541 Ha       -1105.44196196 eV

  Derived energy quantities:
  | Kinetic energy                :          39.21618079 Ha        1067.12657406 eV
  | Electrostatic energy          :         -73.34405894 Ha       -1995.79338849 eV
  | Energy correction for multipole
  | error in Hartree potential    :           0.00000000 Ha           0.00000000 eV
  | Sum of eigenvalues per atom                           :        -137.62500195 eV
  | Total energy (T->0) per atom                          :        -221.08839239 eV  <-- do not rely on this value for anything but (periodic) metals
  | Electronic free energy per atom                       :        -221.08839239 eV
  Initialize hartree_potential_storage
  Max. number of atoms included in rho_multipole:            5

  End scf initialization - timings             :  max(cpu_time)    wall_clock(cpu1)
  | Time for scf. initialization               :        1.000 s           1.169 s
  | Boundary condition initialization          :        0.000 s           0.013 s
  | Integration                                :        0.192 s           0.193 s
  | Solution of K.-S. eqns.                    :        0.008 s           0.006 s
  | Grid partitioning                          :        0.060 s           0.058 s
  | Preloading free-atom quantities on grid    :        0.004 s           0.015 s
  | Free-atom superposition energy             :        0.028 s           0.025 s
  | Total energy evaluation                    :        0.000 s           0.003 s

  Partial memory accounting:
  | Current value for overall tracked memory usage on task 0  :           0.114 MB
  | Peak value for overall tracked memory usage on task 0     :           0.602 MB after allocating wave
  | Largest tracked array allocation on task 0 so far         :           0.123 MB  when allocating H_times_psi
  Note:  These values currently only include a subset of arrays which are explicitly tracked.
  The "true" memory usage will be greater.
------------------------------------------------------------

------------------------------------------------------------
          Begin self-consistency iteration #    1

  Date     :  20200522, Time     :  174443.459
------------------------------------------------------------
  Evaluating new KS density.
  Integration grid: deviation in total charge (<rho> - N_e) =  -5.329071E-15
  Pulay mixing of updated and previous charge densities.

  Evaluating partitioned Hartree potential by multipole expansion.
  | Analytical far-field extrapolation by fixed multipoles:
  | Hartree multipole sum: apparent total charge =   0.533475E-05
  Summing up the Hartree potential.
  Time summed over all CPUs for potential: real work        0.180 s, elapsed        0.243 s
  | RMS charge density error from multipole expansion :   0.147598E-02

  Integrating Hamiltonian matrix: batch-based integration.
  Time summed over all CPUs for integration: real work        0.414 s, elapsed        0.554 s => Consider using load balancing!

  Updating Kohn-Sham eigenvalues and eigenvectors using ELSI and the ELPA eigensolver.
  ELPA settings:
  | ELPA solver          1
  Finished transformation to standard eigenproblem
  | Time :     0.000 s
  Starting ELPA eigensolver
  | Time full => tridiagonal    :     0.001 s
  | Time solve tridiagonal      :     0.000 s
  | Time ev tridiagonal => full :     0.000 s
  Finished solving standard eigenproblem
  | Time :     0.001 s
  Finished back-transformation of eigenvectors
  | Time :     0.000 s

  Obtaining occupation numbers and chemical potential using ELSI.
  | Chemical potential (Fermi level):   -10.88243501eV
  Writing Kohn-Sham eigenvalues.

  State    Occupation    Eigenvalue [Ha]    Eigenvalue [eV]
      1       2.00000          -9.947682         -270.69020
      2       2.00000          -0.717614          -19.52727
      3       2.00000          -0.432808          -11.77730
      4       2.00000          -0.432808          -11.77730
      5       2.00000          -0.432808          -11.77730
      6       0.00000          -0.025459           -0.69278
      7       0.00000           0.030021            0.81690
      8       0.00000           0.030021            0.81690
      9       0.00000           0.030021            0.81690
     10       0.00000           0.078685            2.14112
     11       0.00000           0.078685            2.14112
     12       0.00000           0.078685            2.14112
     13       0.00000           0.185919            5.05911
     14       0.00000           0.236595            6.43808

  Highest occupied state (VBM) at    -11.77730218 eV
  | Occupation number:      2.00000000

  Lowest unoccupied state (CBM) at    -0.69278242 eV
  | Occupation number:      0.00000000

  Overall HOMO-LUMO gap:     11.08451976 eV.

  Total energy components:
  | Sum of eigenvalues            :         -23.92743958 Ha        -651.09875859 eV
  | XC energy correction          :          -6.66648363 Ha        -181.40424934 eV
  | XC potential correction       :           8.56532166 Ha         233.07426117 eV
  | Free-atom electrostatic energy:         -17.18446890 Ha        -467.61319059 eV
  | Hartree energy correction     :          -1.30360672 Ha         -35.47294373 eV
  | Entropy correction            :          -0.00000000 Ha          -0.00000000 eV
  | ---------------------------
  | Total energy                  :         -40.51667717 Ha       -1102.51488108 eV
  | Total energy, T -> 0          :         -40.51667717 Ha       -1102.51488108 eV  <-- do not rely on this value for anything but (periodic) metals
  | Electronic free energy        :         -40.51667717 Ha       -1102.51488108 eV

  Derived energy quantities:
  | Kinetic energy                :          40.08344054 Ha        1090.72591261 eV
  | Electrostatic energy          :         -73.93363408 Ha       -2011.83654435 eV
  | Energy correction for multipole
  | error in Hartree potential    :          -0.00199131 Ha          -0.05418629 eV
  | Sum of eigenvalues per atom                           :        -130.21975172 eV
  | Total energy (T->0) per atom                          :        -220.50297622 eV  <-- do not rely on this value for anything but (periodic) metals
  | Electronic free energy per atom                       :        -220.50297622 eV

  Self-consistency convergence accuracy:
  | Change of charge density      :  0.3354E+00
  | Change of sum of eigenvalues  :  0.3703E+02 eV
  | Change of total energy        :  0.2927E+01 eV

  End self-consistency iteration #     1       :  max(cpu_time)    wall_clock(cpu1)
  | Time for this iteration                    :        0.596 s           0.885 s
  | Charge density update                      :        0.112 s           0.123 s
  | Density mixing                             :        0.000 s           0.014 s
  | Hartree multipole update                   :        0.268 s           0.304 s
  | Hartree multipole summation                :        0.140 s           0.178 s
  | Integration                                :        0.256 s           0.262 s
  | Solution of K.-S. eqns.                    :        0.004 s           0.002 s
  | Total energy evaluation                    :        0.000 s           0.001 s

  Partial memory accounting:
  | Current value for overall tracked memory usage on task 0  :           0.114 MB
  | Peak value for overall tracked memory usage on task 0     :           0.605 MB after allocating gradient_basis_wave
  | Largest tracked array allocation on task 0 so far         :           0.368 MB  when allocating gradient_basis_wave
  Note:  These values currently only include a subset of arrays which are explicitly tracked.
  The "true" memory usage will be greater.
------------------------------------------------------------

------------------------------------------------------------
          Begin self-consistency iteration #    2

  Date     :  20200522, Time     :  174444.346
------------------------------------------------------------
  Evaluating new KS density.
  Integration grid: deviation in total charge (<rho> - N_e) =  -1.065814E-14
  Pulay mixing of updated and previous charge densities.

  Evaluating partitioned Hartree potential by multipole expansion.
  | Analytical far-field extrapolation by fixed multipoles:
  | Hartree multipole sum: apparent total charge =   0.569945E-05
  Summing up the Hartree potential.
  Time summed over all CPUs for potential: real work        0.139 s, elapsed        0.210 s
  | RMS charge density error from multipole expansion :   0.274346E-02

  Integrating Hamiltonian matrix: batch-based integration.
  Time summed over all CPUs for integration: real work        0.339 s, elapsed        0.550 s => Consider using load balancing!

  Updating Kohn-Sham eigenvalues and eigenvectors using ELSI and the ELPA eigensolver.
  ELPA settings:
  | ELPA solver          1
  Finished transformation to standard eigenproblem
  | Time :     0.000 s
  Starting ELPA eigensolver
  | Time full => tridiagonal    :     0.001 s
  | Time solve tridiagonal      :     0.000 s
  | Time ev tridiagonal => full :     0.000 s
  Finished solving standard eigenproblem
  | Time :     0.001 s
  Finished back-transformation of eigenvectors
  | Time :     0.000 s

  Obtaining occupation numbers and chemical potential using ELSI.
  | Chemical potential (Fermi level):    -1.55137367eV
  Highest occupied state (VBM) at    -10.26425468 eV
  | Occupation number:      2.00000000

  Lowest unoccupied state (CBM) at    -0.28759848 eV
  | Occupation number:      0.00000000

  Overall HOMO-LUMO gap:      9.97665620 eV.

  Checking to see if s.c.f. parameters should be adjusted.

  Total energy components:
  | Sum of eigenvalues            :         -23.30068417 Ha        -634.04387598 eV
  | XC energy correction          :          -6.76993418 Ha        -184.21928193 eV
  | XC potential correction       :           8.69848722 Ha         236.69788020 eV
  | Free-atom electrostatic energy:         -17.18446890 Ha        -467.61319059 eV
  | Hartree energy correction     :          -1.94090685 Ha         -52.81476248 eV
  | Entropy correction            :          -0.00000000 Ha          -0.00000000 eV
  | ---------------------------
  | Total energy                  :         -40.49750687 Ha       -1101.99323078 eV
  | Total energy, T -> 0          :         -40.49750687 Ha       -1101.99323078 eV  <-- do not rely on this value for anything but (periodic) metals
  | Electronic free energy        :         -40.49750687 Ha       -1101.99323078 eV

  Derived energy quantities:
  | Kinetic energy                :          40.36425078 Ha        1098.36714809 eV
  | Electrostatic energy          :         -74.09182348 Ha       -2016.14109694 eV
  | Energy correction for multipole
  | error in Hartree potential    :          -0.00316173 Ha          -0.08603500 eV
  | Sum of eigenvalues per atom                           :        -126.80877520 eV
  | Total energy (T->0) per atom                          :        -220.39864616 eV  <-- do not rely on this value for anything but (periodic) metals
  | Electronic free energy per atom                       :        -220.39864616 eV

  Self-consistency convergence accuracy:
  | Change of charge density      :  0.1769E+00
  | Change of sum of eigenvalues  :  0.1705E+02 eV
  | Change of total energy        :  0.5217E+00 eV

  End self-consistency iteration #     2       :  max(cpu_time)    wall_clock(cpu1)
  | Time for this iteration                    :        0.444 s           0.447 s
  | Charge density update                      :        0.108 s           0.122 s
  | Density mixing                             :        0.028 s           0.026 s
  | Hartree multipole update                   :        0.092 s           0.104 s
  | Hartree multipole summation                :        0.052 s           0.053 s
  | Integration                                :        0.140 s           0.138 s
  | Solution of K.-S. eqns.                    :        0.004 s           0.002 s
  | Total energy evaluation                    :        0.000 s           0.000 s

  Partial memory accounting:
  | Current value for overall tracked memory usage on task 0  :           0.114 MB
  | Peak value for overall tracked memory usage on task 0     :           0.605 MB after allocating gradient_basis_wave
  | Largest tracked array allocation on task 0 so far         :           0.368 MB  when allocating gradient_basis_wave
  Note:  These values currently only include a subset of arrays which are explicitly tracked.
  The "true" memory usage will be greater.
------------------------------------------------------------

------------------------------------------------------------
          Begin self-consistency iteration #    3

  Date     :  20200522, Time     :  174444.793
------------------------------------------------------------
  Evaluating new KS density.
  Integration grid: deviation in total charge (<rho> - N_e) =   5.329071E-15
  Pulay mixing of updated and previous charge densities.

  Evaluating partitioned Hartree potential by multipole expansion.
  | Analytical far-field extrapolation by fixed multipoles:
  | Hartree multipole sum: apparent total charge =   0.656771E-05
  Summing up the Hartree potential.
  Time summed over all CPUs for potential: real work        0.139 s, elapsed        0.210 s
  | RMS charge density error from multipole expansion :   0.428356E-02

  Integrating Hamiltonian matrix: batch-based integration.
  Time summed over all CPUs for integration: real work        0.313 s, elapsed        0.474 s => Consider using load balancing!

  Updating Kohn-Sham eigenvalues and eigenvectors using ELSI and the ELPA eigensolver.
  ELPA settings:
  | ELPA solver          1
  Finished transformation to standard eigenproblem
  | Time :     0.000 s
  Starting ELPA eigensolver
  | Time full => tridiagonal    :     0.001 s
  | Time solve tridiagonal      :     0.019 s
  | Time ev tridiagonal => full :     0.000 s
  Finished solving standard eigenproblem
  | Time :     0.020 s
  Finished back-transformation of eigenvectors
  | Time :     0.000 s

  Obtaining occupation numbers and chemical potential using ELSI.
  | Chemical potential (Fermi level):    -1.24379911eV
  Highest occupied state (VBM) at     -9.49776606 eV
  | Occupation number:      2.00000000

  Lowest unoccupied state (CBM) at    -0.00743217 eV
  | Occupation number:      0.00000000

  Overall HOMO-LUMO gap:      9.49033389 eV.

  Total energy components:
  | Sum of eigenvalues            :         -23.09723429 Ha        -628.50772312 eV
  | XC energy correction          :          -6.83327607 Ha        -185.94290240 eV
  | XC potential correction       :           8.77897472 Ha         238.88805666 eV
  | Free-atom electrostatic energy:         -17.18446890 Ha        -467.61319059 eV
  | Hartree energy correction     :          -2.15697273 Ha         -58.69421429 eV
  | Entropy correction            :          -0.00000000 Ha          -0.00000000 eV
  | ---------------------------
  | Total energy                  :         -40.49297726 Ha       -1101.86997374 eV
  | Total energy, T -> 0          :         -40.49297726 Ha       -1101.86997374 eV  <-- do not rely on this value for anything but (periodic) metals
  | Electronic free energy        :         -40.49297726 Ha       -1101.86997374 eV

  Derived energy quantities:
  | Kinetic energy                :          40.33393473 Ha        1097.54220633 eV
  | Electrostatic energy          :         -73.99363592 Ha       -2013.46927767 eV
  | Energy correction for multipole
  | error in Hartree potential    :          -0.00389213 Ha          -0.10591033 eV
  | Sum of eigenvalues per atom                           :        -125.70154462 eV
  | Total energy (T->0) per atom                          :        -220.37399475 eV  <-- do not rely on this value for anything but (periodic) metals
  | Electronic free energy per atom                       :        -220.37399475 eV

  Self-consistency convergence accuracy:
  | Change of charge density      :  0.1001E+00
  | Change of sum of eigenvalues  :  0.5536E+01 eV
  | Change of total energy        :  0.1233E+00 eV

  End self-consistency iteration #     3       :  max(cpu_time)    wall_clock(cpu1)
  | Time for this iteration                    :        0.304 s           0.305 s
  | Charge density update                      :        0.088 s           0.089 s
  | Density mixing                             :        0.004 s           0.014 s
  | Hartree multipole update                   :        0.004 s           0.003 s
  | Hartree multipole summation                :        0.052 s           0.053 s
  | Integration                                :        0.124 s           0.125 s
  | Solution of K.-S. eqns.                    :        0.020 s           0.020 s
  | Total energy evaluation                    :        0.000 s           0.001 s

  Partial memory accounting:
  | Current value for overall tracked memory usage on task 0  :           0.114 MB
  | Peak value for overall tracked memory usage on task 0     :           0.605 MB after allocating gradient_basis_wave
  | Largest tracked array allocation on task 0 so far         :           0.368 MB  when allocating gradient_basis_wave
  Note:  These values currently only include a subset of arrays which are explicitly tracked.
  The "true" memory usage will be greater.
------------------------------------------------------------

------------------------------------------------------------
          Begin self-consistency iteration #    4

  Date     :  20200522, Time     :  174445.099
------------------------------------------------------------
  Evaluating new KS density.
  Integration grid: deviation in total charge (<rho> - N_e) =  -7.105427E-15
  Pulay mixing of updated and previous charge densities.

  Evaluating partitioned Hartree potential by multipole expansion.
  | Analytical far-field extrapolation by fixed multipoles:
  | Hartree multipole sum: apparent total charge =   0.661313E-05
  Summing up the Hartree potential.
  Time summed over all CPUs for potential: real work        0.136 s, elapsed        0.210 s
  | RMS charge density error from multipole expansion :   0.441967E-02

  Integrating Hamiltonian matrix: batch-based integration.
  Time summed over all CPUs for integration: real work        0.334 s, elapsed        0.497 s => Consider using load balancing!

  Updating Kohn-Sham eigenvalues and eigenvectors using ELSI and the ELPA eigensolver.
  ELPA settings:
  | ELPA solver          1
  Finished transformation to standard eigenproblem
  | Time :     0.000 s
  Starting ELPA eigensolver
  | Time full => tridiagonal    :     0.001 s
  | Time solve tridiagonal      :     0.000 s
  | Time ev tridiagonal => full :     0.000 s
  Finished solving standard eigenproblem
  | Time :     0.001 s
  Finished back-transformation of eigenvectors
  | Time :     0.000 s

  Obtaining occupation numbers and chemical potential using ELSI.
  | Chemical potential (Fermi level):    -1.21022795eV
  Highest occupied state (VBM) at     -9.43208857 eV
  | Occupation number:      2.00000000

  Lowest unoccupied state (CBM) at     0.02056522 eV
  | Occupation number:      0.00000000

  Overall HOMO-LUMO gap:      9.45265379 eV.

  Total energy components:
  | Sum of eigenvalues            :         -23.07565501 Ha        -627.92052110 eV
  | XC energy correction          :          -6.83813472 Ha        -186.07511319 eV
  | XC potential correction       :           8.78522090 Ha         239.05802381 eV
  | Free-atom electrostatic energy:         -17.18446890 Ha        -467.61319059 eV
  | Hartree energy correction     :          -2.17993284 Ha         -59.31899080 eV
  | Entropy correction            :          -0.00000000 Ha          -0.00000000 eV
  | ---------------------------
  | Total energy                  :         -40.49297058 Ha       -1101.86979187 eV
  | Total energy, T -> 0          :         -40.49297058 Ha       -1101.86979187 eV  <-- do not rely on this value for anything but (periodic) metals
  | Electronic free energy        :         -40.49297058 Ha       -1101.86979187 eV

  Derived energy quantities:
  | Kinetic energy                :          40.33141180 Ha        1097.47355395 eV
  | Electrostatic energy          :         -73.98624765 Ha       -2013.26823263 eV
  | Energy correction for multipole
  | error in Hartree potential    :          -0.00392886 Ha          -0.10690979 eV
  | Sum of eigenvalues per atom                           :        -125.58410422 eV
  | Total energy (T->0) per atom                          :        -220.37395837 eV  <-- do not rely on this value for anything but (periodic) metals
  | Electronic free energy per atom                       :        -220.37395837 eV

  Self-consistency convergence accuracy:
  | Change of charge density      :  0.6291E-02
  | Change of sum of eigenvalues  :  0.5872E+00 eV
  | Change of total energy        :  0.1819E-03 eV

  End self-consistency iteration #     4       :  max(cpu_time)    wall_clock(cpu1)
  | Time for this iteration                    :        0.256 s           0.267 s
  | Charge density update                      :        0.072 s           0.068 s
  | Density mixing                             :        0.004 s           0.009 s
  | Hartree multipole update                   :        0.004 s           0.003 s
  | Hartree multipole summation                :        0.056 s           0.058 s
  | Integration                                :        0.124 s           0.124 s
  | Solution of K.-S. eqns.                    :        0.004 s           0.003 s
  | Total energy evaluation                    :        0.000 s           0.001 s

  Partial memory accounting:
  | Current value for overall tracked memory usage on task 0  :           0.114 MB
  | Peak value for overall tracked memory usage on task 0     :           0.605 MB after allocating gradient_basis_wave
  | Largest tracked array allocation on task 0 so far         :           0.368 MB  when allocating gradient_basis_wave
  Note:  These values currently only include a subset of arrays which are explicitly tracked.
  The "true" memory usage will be greater.
------------------------------------------------------------

------------------------------------------------------------
          Begin self-consistency iteration #    5

  Date     :  20200522, Time     :  174445.367
------------------------------------------------------------
  Evaluating new KS density.
  Integration grid: deviation in total charge (<rho> - N_e) =   3.552714E-15
  Pulay mixing of updated and previous charge densities.

  Evaluating partitioned Hartree potential by multipole expansion.
  | Analytical far-field extrapolation by fixed multipoles:
  | Hartree multipole sum: apparent total charge =   0.660208E-05
  Summing up the Hartree potential.
  Time summed over all CPUs for potential: real work        0.139 s, elapsed        0.211 s
  | RMS charge density error from multipole expansion :   0.445796E-02

  Integrating Hamiltonian matrix: batch-based integration.
  Time summed over all CPUs for integration: real work        0.310 s, elapsed        0.474 s => Consider using load balancing!

  Updating Kohn-Sham eigenvalues and eigenvectors using ELSI and the ELPA eigensolver.
  ELPA settings:
  | ELPA solver          1
  Finished transformation to standard eigenproblem
  | Time :     0.000 s
  Starting ELPA eigensolver
  | Time full => tridiagonal    :     0.001 s
  | Time solve tridiagonal      :     0.000 s
  | Time ev tridiagonal => full :     0.000 s
  Finished solving standard eigenproblem
  | Time :     0.001 s
  Finished back-transformation of eigenvectors
  | Time :     0.000 s

  Obtaining occupation numbers and chemical potential using ELSI.
  | Chemical potential (Fermi level):    -1.21127466eV
  Highest occupied state (VBM) at     -9.45050644 eV
  | Occupation number:      2.00000000

  Lowest unoccupied state (CBM) at     0.02075907 eV
  | Occupation number:      0.00000000

  Overall HOMO-LUMO gap:      9.47126551 eV.

  Total energy components:
  | Sum of eigenvalues            :         -23.08254689 Ha        -628.10805880 eV
  | XC energy correction          :          -6.83570492 Ha        -186.00899487 eV
  | XC potential correction       :           8.78214414 Ha         238.97430086 eV
  | Free-atom electrostatic energy:         -17.18446890 Ha        -467.61319059 eV
  | Hartree energy correction     :          -2.17239540 Ha         -59.11388653 eV
  | Entropy correction            :          -0.00000000 Ha          -0.00000000 eV
  | ---------------------------
  | Total energy                  :         -40.49297197 Ha       -1101.86982994 eV
  | Total energy, T -> 0          :         -40.49297197 Ha       -1101.86982994 eV  <-- do not rely on this value for anything but (periodic) metals
  | Electronic free energy        :         -40.49297197 Ha       -1101.86982994 eV

  Derived energy quantities:
  | Kinetic energy                :          40.31975400 Ha        1097.15632916 eV
  | Electrostatic energy          :         -73.97702106 Ha       -2013.01716422 eV
  | Energy correction for multipole
  | error in Hartree potential    :          -0.00387767 Ha          -0.10551690 eV
  | Sum of eigenvalues per atom                           :        -125.62161176 eV
  | Total energy (T->0) per atom                          :        -220.37396599 eV  <-- do not rely on this value for anything but (periodic) metals
  | Electronic free energy per atom                       :        -220.37396599 eV

  Self-consistency convergence accuracy:
  | Change of charge density      :  0.2526E-02
  | Change of sum of eigenvalues  : -0.1875E+00 eV
  | Change of total energy        : -0.3807E-04 eV

  End self-consistency iteration #     5       :  max(cpu_time)    wall_clock(cpu1)
  | Time for this iteration                    :        0.260 s           0.282 s
  | Charge density update                      :        0.076 s           0.077 s
  | Density mixing                             :        0.004 s           0.004 s
  | Hartree multipole update                   :        0.004 s           0.003 s
  | Hartree multipole summation                :        0.064 s           0.065 s
  | Integration                                :        0.128 s           0.129 s
  | Solution of K.-S. eqns.                    :        0.004 s           0.002 s
  | Total energy evaluation                    :        0.000 s           0.002 s

  Partial memory accounting:
  | Current value for overall tracked memory usage on task 0  :           0.114 MB
  | Peak value for overall tracked memory usage on task 0     :           0.605 MB after allocating gradient_basis_wave
  | Largest tracked array allocation on task 0 so far         :           0.368 MB  when allocating gradient_basis_wave
  Note:  These values currently only include a subset of arrays which are explicitly tracked.
  The "true" memory usage will be greater.
------------------------------------------------------------

------------------------------------------------------------
          Begin self-consistency iteration #    6

  Date     :  20200522, Time     :  174445.650
------------------------------------------------------------
  Evaluating new KS density.
  Integration grid: deviation in total charge (<rho> - N_e) =   3.552714E-15
  Pulay mixing of updated and previous charge densities.

  Evaluating partitioned Hartree potential by multipole expansion.
  | Analytical far-field extrapolation by fixed multipoles:
  | Hartree multipole sum: apparent total charge =   0.660319E-05
  Summing up the Hartree potential.
  Time summed over all CPUs for potential: real work        0.147 s, elapsed        0.243 s
  | RMS charge density error from multipole expansion :   0.446010E-02

  Integrating Hamiltonian matrix: batch-based integration.
  Time summed over all CPUs for integration: real work        0.307 s, elapsed        0.454 s => Consider using load balancing!

  Updating Kohn-Sham eigenvalues and eigenvectors using ELSI and the ELPA eigensolver.
  ELPA settings:
  | ELPA solver          1
  Finished transformation to standard eigenproblem
  | Time :     0.000 s
  Starting ELPA eigensolver
  | Time full => tridiagonal    :     0.001 s
  | Time solve tridiagonal      :     0.000 s
  | Time ev tridiagonal => full :     0.000 s
  Finished solving standard eigenproblem
  | Time :     0.001 s
  Finished back-transformation of eigenvectors
  | Time :     0.000 s

  Obtaining occupation numbers and chemical potential using ELSI.
  | Chemical potential (Fermi level):    -1.20989482eV
  Highest occupied state (VBM) at     -9.44730015 eV
  | Occupation number:      2.00000000

  Lowest unoccupied state (CBM) at     0.02166333 eV
  | Occupation number:      0.00000000

  Overall HOMO-LUMO gap:      9.46896348 eV.

  Total energy components:
  | Sum of eigenvalues            :         -23.08123501 Ha        -628.07236058 eV
  | XC energy correction          :          -6.83599055 Ha        -186.01676719 eV
  | XC potential correction       :           8.78251103 Ha         238.98428450 eV
  | Free-atom electrostatic energy:         -17.18446890 Ha        -467.61319059 eV
  | Hartree energy correction     :          -2.17378843 Ha         -59.15179285 eV
  | Entropy correction            :          -0.00000000 Ha          -0.00000000 eV
  | ---------------------------
  | Total energy                  :         -40.49297186 Ha       -1101.86982670 eV
  | Total energy, T -> 0          :         -40.49297186 Ha       -1101.86982670 eV  <-- do not rely on this value for anything but (periodic) metals
  | Electronic free energy        :         -40.49297186 Ha       -1101.86982670 eV

  Derived energy quantities:
  | Kinetic energy                :          40.32069272 Ha        1097.18187291 eV
  | Electrostatic energy          :         -73.97767403 Ha       -2013.03493243 eV
  | Energy correction for multipole
  | error in Hartree potential    :          -0.00388160 Ha          -0.10562359 eV
  | Sum of eigenvalues per atom                           :        -125.61447212 eV
  | Total energy (T->0) per atom                          :        -220.37396534 eV  <-- do not rely on this value for anything but (periodic) metals
  | Electronic free energy per atom                       :        -220.37396534 eV

  Self-consistency convergence accuracy:
  | Change of charge density      :  0.2011E-03
  | Change of sum of eigenvalues  :  0.3570E-01 eV
  | Change of total energy        :  0.3232E-05 eV

  End self-consistency iteration #     6       :  max(cpu_time)    wall_clock(cpu1)
  | Time for this iteration                    :        0.276 s           0.278 s
  | Charge density update                      :        0.080 s           0.079 s
  | Density mixing                             :        0.004 s           0.004 s
  | Hartree multipole update                   :        0.016 s           0.014 s
  | Hartree multipole summation                :        0.064 s           0.062 s
  | Integration                                :        0.116 s           0.114 s
  | Solution of K.-S. eqns.                    :        0.000 s           0.002 s
  | Total energy evaluation                    :        0.004 s           0.001 s

  Partial memory accounting:
  | Current value for overall tracked memory usage on task 0  :           0.114 MB
  | Peak value for overall tracked memory usage on task 0     :           0.605 MB after allocating gradient_basis_wave
  | Largest tracked array allocation on task 0 so far         :           0.368 MB  when allocating gradient_basis_wave
  Note:  These values currently only include a subset of arrays which are explicitly tracked.
  The "true" memory usage will be greater.
------------------------------------------------------------

------------------------------------------------------------
          Begin self-consistency iteration #    7

  Date     :  20200522, Time     :  174445.930
------------------------------------------------------------
  Evaluating new KS density.
  Integration grid: deviation in total charge (<rho> - N_e) =  -1.065814E-14
  Pulay mixing of updated and previous charge densities.

  Evaluating partitioned Hartree potential by multipole expansion.
  | Analytical far-field extrapolation by fixed multipoles:
  | Hartree multipole sum: apparent total charge =   0.660303E-05
  Summing up the Hartree potential.
  Time summed over all CPUs for potential: real work        0.152 s, elapsed        0.259 s
  | RMS charge density error from multipole expansion :   0.446145E-02

  Integrating Hamiltonian matrix: batch-based integration.
  Time summed over all CPUs for integration: real work        0.298 s, elapsed        0.342 s

  Updating Kohn-Sham eigenvalues and eigenvectors using ELSI and the ELPA eigensolver.
  ELPA settings:
  | ELPA solver          1
  Finished transformation to standard eigenproblem
  | Time :     0.000 s
  Starting ELPA eigensolver
  | Time full => tridiagonal    :     0.001 s
  | Time solve tridiagonal      :     0.000 s
  | Time ev tridiagonal => full :     0.000 s
  Finished solving standard eigenproblem
  | Time :     0.001 s
  Finished back-transformation of eigenvectors
  | Time :     0.000 s

  Obtaining occupation numbers and chemical potential using ELSI.
  | Chemical potential (Fermi level):    -1.20997737eV
  Highest occupied state (VBM) at     -9.44775438 eV
  | Occupation number:      2.00000000

  Lowest unoccupied state (CBM) at     0.02163995 eV
  | Occupation number:      0.00000000

  Overall HOMO-LUMO gap:      9.46939433 eV.

  Total energy components:
  | Sum of eigenvalues            :         -23.08139023 Ha        -628.07658432 eV
  | XC energy correction          :          -6.83596930 Ha        -186.01618919 eV
  | XC potential correction       :           8.78248381 Ha         238.98354373 eV
  | Free-atom electrostatic energy:         -17.18446890 Ha        -467.61319059 eV
  | Hartree energy correction     :          -2.17362725 Ha         -59.14740695 eV
  | Entropy correction            :          -0.00000000 Ha          -0.00000000 eV
  | ---------------------------
  | Total energy                  :         -40.49297188 Ha       -1101.86982732 eV
  | Total energy, T -> 0          :         -40.49297188 Ha       -1101.86982732 eV  <-- do not rely on this value for anything but (periodic) metals
  | Electronic free energy        :         -40.49297188 Ha       -1101.86982732 eV

  Derived energy quantities:
  | Kinetic energy                :          40.32083929 Ha        1097.18586122 eV
  | Electrostatic energy          :         -73.97784186 Ha       -2013.03949935 eV
  | Energy correction for multipole
  | error in Hartree potential    :          -0.00388170 Ha          -0.10562636 eV
  | Sum of eigenvalues per atom                           :        -125.61531686 eV
  | Total energy (T->0) per atom                          :        -220.37396546 eV  <-- do not rely on this value for anything but (periodic) metals
  | Electronic free energy per atom                       :        -220.37396546 eV

  Self-consistency convergence accuracy:
  | Change of charge density      :  0.6016E-04
  | Change of sum of eigenvalues  : -0.4224E-02 eV
  | Change of total energy        : -0.6136E-06 eV

  End self-consistency iteration #     7       :  max(cpu_time)    wall_clock(cpu1)
  | Time for this iteration                    :        0.276 s           0.283 s
  | Charge density update                      :        0.092 s           0.092 s
  | Density mixing                             :        0.004 s           0.004 s
  | Hartree multipole update                   :        0.004 s           0.003 s
  | Hartree multipole summation                :        0.064 s           0.066 s
  | Integration                                :        0.116 s           0.113 s
  | Solution of K.-S. eqns.                    :        0.004 s           0.003 s
  | Total energy evaluation                    :        0.004 s           0.001 s

  Partial memory accounting:
  | Current value for overall tracked memory usage on task 0  :           0.114 MB
  | Peak value for overall tracked memory usage on task 0     :           0.605 MB after allocating gradient_basis_wave
  | Largest tracked array allocation on task 0 so far         :           0.368 MB  when allocating gradient_basis_wave
  Note:  These values currently only include a subset of arrays which are explicitly tracked.
  The "true" memory usage will be greater.
------------------------------------------------------------

------------------------------------------------------------
          Begin self-consistency iteration #    8

  Date     :  20200522, Time     :  174446.214
------------------------------------------------------------
  Evaluating new KS density.
  Integration grid: deviation in total charge (<rho> - N_e) =  -3.552714E-15
  Pulay mixing of updated and previous charge densities.

  Evaluating partitioned Hartree potential by multipole expansion.
  | Analytical far-field extrapolation by fixed multipoles:
  | Hartree multipole sum: apparent total charge =   0.660296E-05
  Summing up the Hartree potential.
  Time summed over all CPUs for potential: real work        0.139 s, elapsed        0.211 s
  | RMS charge density error from multipole expansion :   0.446141E-02

  Integrating Hamiltonian matrix: batch-based integration.
  Time summed over all CPUs for integration: real work        0.317 s, elapsed        0.498 s => Consider using load balancing!

  Updating Kohn-Sham eigenvalues and eigenvectors using ELSI and the ELPA eigensolver.
  ELPA settings:
  | ELPA solver          1
  Finished transformation to standard eigenproblem
  | Time :     0.000 s
  Starting ELPA eigensolver
  | Time full => tridiagonal    :     0.001 s
  | Time solve tridiagonal      :     0.000 s
  | Time ev tridiagonal => full :     0.000 s
  Finished solving standard eigenproblem
  | Time :     0.001 s
  Finished back-transformation of eigenvectors
  | Time :     0.000 s

  Obtaining occupation numbers and chemical potential using ELSI.
  | Chemical potential (Fermi level):    -1.21000532eV
  Highest occupied state (VBM) at     -9.44781865 eV
  | Occupation number:      2.00000000

  Lowest unoccupied state (CBM) at     0.02161937 eV
  | Occupation number:      0.00000000

  Overall HOMO-LUMO gap:      9.46943802 eV.

  Total energy components:
  | Sum of eigenvalues            :         -23.08141408 Ha        -628.07723346 eV
  | XC energy correction          :          -6.83596316 Ha        -186.01602199 eV
  | XC potential correction       :           8.78247598 Ha         238.98333068 eV
  | Free-atom electrostatic energy:         -17.18446890 Ha        -467.61319059 eV
  | Hartree energy correction     :          -2.17360172 Ha         -59.14671205 eV
  | Entropy correction            :          -0.00000000 Ha          -0.00000000 eV
  | ---------------------------
  | Total energy                  :         -40.49297188 Ha       -1101.86982741 eV
  | Total energy, T -> 0          :         -40.49297188 Ha       -1101.86982741 eV  <-- do not rely on this value for anything but (periodic) metals
  | Electronic free energy        :         -40.49297188 Ha       -1101.86982741 eV

  Derived energy quantities:
  | Kinetic energy                :          40.32081950 Ha        1097.18532286 eV
  | Electrostatic energy          :         -73.97782822 Ha       -2013.03912828 eV
  | Energy correction for multipole
  | error in Hartree potential    :          -0.00388167 Ha          -0.10562554 eV
  | Sum of eigenvalues per atom                           :        -125.61544669 eV
  | Total energy (T->0) per atom                          :        -220.37396548 eV  <-- do not rely on this value for anything but (periodic) metals
  | Electronic free energy per atom                       :        -220.37396548 eV

  Self-consistency convergence accuracy:
  | Change of charge density      :  0.2874E-05
  | Change of sum of eigenvalues  : -0.6491E-03 eV
  | Change of total energy        : -0.9185E-07 eV

  End self-consistency iteration #     8       :  max(cpu_time)    wall_clock(cpu1)
  | Time for this iteration                    :        0.624 s           0.627 s
  | Charge density update                      :        0.080 s           0.090 s
  | Density mixing                             :        0.028 s           0.038 s
  | Hartree multipole update                   :        0.304 s           0.304 s
  | Hartree multipole summation                :        0.052 s           0.053 s
  | Integration                                :        0.140 s           0.137 s
  | Solution of K.-S. eqns.                    :        0.004 s           0.003 s
  | Total energy evaluation                    :        0.000 s           0.001 s

  Partial memory accounting:
  | Current value for overall tracked memory usage on task 0  :           0.114 MB
  | Peak value for overall tracked memory usage on task 0     :           0.605 MB after allocating gradient_basis_wave
  | Largest tracked array allocation on task 0 so far         :           0.368 MB  when allocating gradient_basis_wave
  Note:  These values currently only include a subset of arrays which are explicitly tracked.
  The "true" memory usage will be greater.
------------------------------------------------------------

------------------------------------------------------------
          Begin self-consistency iteration #    9

  Date     :  20200522, Time     :  174446.842
------------------------------------------------------------
  Evaluating new KS density.
  Integration grid: deviation in total charge (<rho> - N_e) =   1.598721E-14
  Pulay mixing of updated and previous charge densities.

  Evaluating partitioned Hartree potential by multipole expansion.
  | Analytical far-field extrapolation by fixed multipoles:
  | Hartree multipole sum: apparent total charge =   0.660297E-05
  Summing up the Hartree potential.
  Time summed over all CPUs for potential: real work        0.152 s, elapsed        0.259 s
  | RMS charge density error from multipole expansion :   0.446146E-02

  Integrating Hamiltonian matrix: batch-based integration.
  Time summed over all CPUs for integration: real work        0.308 s, elapsed        0.366 s

  Updating Kohn-Sham eigenvalues and eigenvectors using ELSI and the ELPA eigensolver.
  ELPA settings:
  | ELPA solver          1
  Finished transformation to standard eigenproblem
  | Time :     0.000 s
  Starting ELPA eigensolver
  | Time full => tridiagonal    :     0.001 s
  | Time solve tridiagonal      :     0.000 s
  | Time ev tridiagonal => full :     0.000 s
  Finished solving standard eigenproblem
  | Time :     0.001 s
  Finished back-transformation of eigenvectors
  | Time :     0.000 s

  Obtaining occupation numbers and chemical potential using ELSI.
  | Chemical potential (Fermi level):    -1.20998777eV
  Highest occupied state (VBM) at     -9.44777251 eV
  | Occupation number:      2.00000000

  Lowest unoccupied state (CBM) at     0.02163228 eV
  | Occupation number:      0.00000000

  Overall HOMO-LUMO gap:      9.46940479 eV.

  Total energy components:
  | Sum of eigenvalues            :         -23.08139697 Ha        -628.07676770 eV
  | XC energy correction          :          -6.83596734 Ha        -186.01613560 eV
  | XC potential correction       :           8.78248134 Ha         238.98347663 eV
[...]
  | ---------------------------
  | Total energy                  :         -40.49297188 Ha       -1101.86982739 eV
  | Total energy, T -> 0          :         -40.49297188 Ha       -1101.86982739 eV  <-- do not rely on this value for anything but (periodic) metals
  | Electronic free energy        :         -40.49297188 Ha       -1101.86982739 eV

  Derived energy quantities:
  | Kinetic energy                :          40.32082829 Ha        1097.18556208 eV
  | Electrostatic energy          :         -73.97783284 Ha       -2013.03925379 eV
  | Energy correction for multipole
  | error in Hartree potential    :          -0.00388176 Ha          -0.10562809 eV
  | Sum of eigenvalues per atom                           :        -125.61535350 eV
  | Total energy (T->0) per atom                          :        -220.37396548 eV  <-- do not rely on this value for anything but (periodic) metals
  | Electronic free energy per atom                       :        -220.37396548 eV

  Self-consistency convergence accuracy:
  | Change of charge density      :  0.2458E-07
  | Change of sum of eigenvalues  :  0.2231E-06 eV
  | Change of total energy        :  0.5704E-10 eV

  Writing Kohn-Sham eigenvalues.

  State    Occupation    Eigenvalue [Ha]    Eigenvalue [eV]
      1       2.00000          -9.871971         -268.63001
      2       2.00000          -0.627129          -17.06506
      3       2.00000          -0.347199           -9.44777
      4       2.00000          -0.347199           -9.44777
      5       2.00000          -0.347199           -9.44777
      6       0.00000           0.000795            0.02163
      7       0.00000           0.052690            1.43376
      8       0.00000           0.052690            1.43376
      9       0.00000           0.052690            1.43376
     10       0.00000           0.118315            3.21951
     11       0.00000           0.118315            3.21951
     12       0.00000           0.118315            3.21951
     13       0.00000           0.223893            6.09244
     14       0.00000           0.272550            7.41646

  Highest occupied state (VBM) at     -9.44777249 eV
  | Occupation number:      2.00000000

  Lowest unoccupied state (CBM) at     0.02163226 eV
  | Occupation number:      0.00000000

  Overall HOMO-LUMO gap:      9.46940475 eV.

  Self-consistency cycle converged.

  End self-consistency iteration #    10       :  max(cpu_time)    wall_clock(cpu1)
  | Time for this iteration                    :        0.260 s           0.289 s
  | Charge density update                      :        0.096 s           0.095 s
  | Density mixing                             :        0.004 s           0.004 s
  | Hartree multipole update                   :        0.016 s           0.014 s
  | Hartree multipole summation                :        0.056 s           0.053 s
  | Integration                                :        0.112 s           0.113 s
  | Solution of K.-S. eqns.                    :        0.004 s           0.005 s
  | Total energy evaluation                    :        0.000 s           0.002 s

  Partial memory accounting:
  | Current value for overall tracked memory usage on task 0  :           0.114 MB
  | Peak value for overall tracked memory usage on task 0     :           0.605 MB after allocating gradient_basis_wave
  | Largest tracked array allocation on task 0 so far         :           0.368 MB  when allocating gradient_basis_wave
  Note:  These values currently only include a subset of arrays which are explicitly tracked.
  The "true" memory usage will be greater.
------------------------------------------------------------
  |------------------------------------------
  | Final ELSI Output
  |------------------------------------------
  | Number of basis functions :           99
  | Number of electrons       :         10.0
  | Number of spins           :            1
  | Number of k-points        :            1
  | Number of states          :           14
  | Solver                    :         ELPA
  | Parallel mode             :   MULTI_PROC
  | Matrix format             :  BLACS_DENSE
  | Matrix sparsity           :        0.199
  |------------------------------------------
  | ELSI Project (c)  elsi-interchange.org
  |------------------------------------------
  Obtaining max. number of non-zero basis functions in each batch .
  Evaluating KS electron density on previously omitted grid points.
  Performing Hirshfeld analysis of fragment charges and moments.
  ----------------------------------------------------------------------
  | Atom     1: C
  |   Hirshfeld charge        :     -0.16343536
  |   Free atom volume        :     38.37861207
  |   Hirshfeld volume        :     27.91322672
  |   Hirshfeld dipole vector :      0.00000000       0.00000000       0.00000000
  |   Hirshfeld dipole moment :      0.00000000
  |   Hirshfeld second moments:      0.19613967      -0.00000000      -0.00000000
  |                                 -0.00000000       0.19613967       0.00000000
  |                                 -0.00000000       0.00000000       0.19613967
  ----------------------------------------------------------------------
  | Atom     2: H
  |   Hirshfeld charge        :      0.04085439
  |   Free atom volume        :     10.31539447
  |   Hirshfeld volume        :      5.94384320
  |   Hirshfeld dipole vector :      0.05109182       0.05109182       0.05109182
  |   Hirshfeld dipole moment :      0.08849362
  |   Hirshfeld second moments:      0.10958621      -0.00884999      -0.00884999
  |                                 -0.00884999       0.10958621      -0.00884999
  |                                 -0.00884999      -0.00884999       0.10958621
  ----------------------------------------------------------------------
  | Atom     3: H
  |   Hirshfeld charge        :      0.04085439
  |   Free atom volume        :     10.31539447
  |   Hirshfeld volume        :      5.94384320
  |   Hirshfeld dipole vector :     -0.05109182      -0.05109182       0.05109182
  |   Hirshfeld dipole moment :      0.08849362
  |   Hirshfeld second moments:      0.10958621      -0.00884999       0.00884999
  |                                 -0.00884999       0.10958621       0.00884999
  |                                  0.00884999       0.00884999       0.10958621
  ----------------------------------------------------------------------
  | Atom     4: H
  |   Hirshfeld charge        :      0.04085439
  |   Free atom volume        :     10.31539447
  |   Hirshfeld volume        :      5.94384320
  |   Hirshfeld dipole vector :     -0.05109182       0.05109182      -0.05109182
  |   Hirshfeld dipole moment :      0.08849362
  |   Hirshfeld second moments:      0.10958621       0.00884999      -0.00884999
  |                                  0.00884999       0.10958621       0.00884999
  |                                 -0.00884999       0.00884999       0.10958621
  ----------------------------------------------------------------------
  | Atom     5: H
  |   Hirshfeld charge        :      0.04085439
  |   Free atom volume        :     10.31539447
  |   Hirshfeld volume        :      5.94384320
  |   Hirshfeld dipole vector :      0.05109182      -0.05109182      -0.05109182
  |   Hirshfeld dipole moment :      0.08849362
  |   Hirshfeld second moments:      0.10958621       0.00884999       0.00884999
  |                                  0.00884999       0.10958621      -0.00884999
  |                                  0.00884999      -0.00884999       0.10958621
  ----------------------------------------------------------------------

  | Many-Body Dispersion (MBD@rsSCS) energy
  | Total dynamic anisotropic polarizability, \alpha_{ij}(iu), (a.u.)
  | -------------------------------------------------------------------
  |      u            xx         yy         zz         yz         xz         xy
  |   0.000000     17.129     17.129     17.129      0.000     -0.000     -0.000
  |   0.003624     17.128     17.128     17.128      0.000     -0.000     -0.000
  |   0.019427     17.103     17.103     17.103      0.000     -0.000     -0.000
  |   0.049278     16.963     16.963     16.963      0.000     -0.000     -0.000
  |   0.095887     16.518     16.518     16.518      0.000     -0.000     -0.000
  |   0.163858     15.460     15.460     15.460      0.000     -0.000     -0.000
  |   0.260739     13.437     13.437     13.437      0.000     -0.000     -0.000
  |   0.399006     10.341     10.341     10.341      0.000     -0.000     -0.000
  |   0.600000      6.710      6.710      6.710      0.000     -0.000     -0.000
  |   0.902242      3.628      3.628      3.628      0.000     -0.000     -0.000
  |   1.380693      1.701      1.701      1.701      0.000     -0.000     -0.000
  |   2.197021      0.704      0.704      0.704      0.000     -0.000     -0.000
  |   3.754417      0.247      0.247      0.247      0.000     -0.000     -0.000
  |   7.305481      0.066      0.066      0.066      0.000     -0.000     -0.000
  |  18.530638      0.010      0.010      0.010      0.000     -0.000     -0.000
  |  99.337689      0.000      0.000      0.000      0.000     -0.000     -0.000
  | --------------------------------------------------------------
  | Partitioned atomic C6 coefficients and polarizabilities (a.u.)
  | --------------------------------------------------------------
  | ATOM   1  C   30.199918          9.393031
  | ATOM   2  H    1.461496          1.933873
  | ATOM   3  H    1.461496          1.933873
  | ATOM   4  H    1.461496          1.933873
  | ATOM   5  H    1.461496          1.933873
  | --------------------------------------------------------------
  | Computing MBD@rsSCS energy...
  | --------------------------------------------------------------

  Total energy components:
  | Sum of eigenvalues            :         -23.08139696 Ha        -628.07676748 eV
  | XC energy correction          :          -6.83596734 Ha        -186.01613568 eV
  | XC potential correction       :           8.78248134 Ha         238.98347672 eV
  | Free-atom electrostatic energy:         -17.18446890 Ha        -467.61319059 eV
  | Hartree energy correction     :          -2.17362003 Ha         -59.14721036 eV
  | MBD@rsSCS energy              :          -0.00096025 Ha          -0.02612974 eV
  | Entropy correction            :          -0.00000000 Ha          -0.00000000 eV
  | ---------------------------
  | Total energy                  :         -40.49393213 Ha       -1101.89595713 eV
  | Total energy, T -> 0          :         -40.49393213 Ha       -1101.89595713 eV  <-- do not rely on this value for anything but (periodic) metals
  | Electronic free energy        :         -40.49393213 Ha       -1101.89595713 eV

  Derived energy quantities:
  | Kinetic energy                :          40.32082829 Ha        1097.18556208 eV
  | Electrostatic energy          :         -73.97783284 Ha       -2013.03925379 eV
  | Energy correction for multipole
  | error in Hartree potential    :          -0.00388176 Ha          -0.10562809 eV
  | Sum of eigenvalues per atom                           :        -125.61535350 eV
  | Total energy (T->0) per atom                          :        -220.37919143 eV  <-- do not rely on this value for anything but (periodic) metals
  | Electronic free energy per atom                       :        -220.37919143 eV
  Timings for VdW correction (Tkatchenko-Scheffler 2009 or later):
  | CPU time:        0.112 s, Wall clock time:        0.136 s.
  ------------------------------------------------------------
   Computing monopole / dipole moments for complete molecule:
  | Total electronic charge [e]         :          0.100000000000001E+02
  | Total ionic charge [e]              :          0.100000000000000E+02
  | Total charge [e]                    :         -0.817124146124115E-13
  | Total dipole moment [eAng]          :          0.793131375576017E-15         0.528570655158184E-14         0.110157135496669E-15
  | Absolute dipole moment              :          0.534601587379416E-14 eAng              /                   0.256740066949485E-13 Debye  .

  Energy and forces in a compact form:
  | Total energy uncorrected      :         -0.110189595712848E+04 eV
  | Total energy corrected        :         -0.110189595712848E+04 eV  <-- do not rely on this value for anything but (periodic) metals
  | Electronic free energy        :         -0.110189595712848E+04 eV

  ------------------------------------ 
  Start decomposition of the XC Energy 
  ------------------------------------ 
  X and C from original XC functional choice 
  Hartree-Fock Energy :          0.000000000 Ha              0.000000000 eV
  X Energy            :         -6.536145060 Ha           -177.857556364 eV
  C Energy            :         -0.299822279 Ha             -8.158579316 eV
  Total XC Energy     :         -6.835967339 Ha           -186.016135680 eV
  ------------------------------------ 
  LDA X and C from self-consistent density 
  X Energy LDA        :         -5.893290925 Ha           -160.364605324 eV
  C Energy LDA        :         -0.590877779 Ha            -16.078602427 eV
  ------------------------------------ 
  End decomposition of the XC Energy 
  ------------------------------------ 

------------------------------------------------------------

------------------------------------------------------------------------------
  Final output of selected total energy values:

  The following output summarizes some interesting total energy values
  at the end of a run (AFTER all relaxation, molecular dynamics, etc.).

  | Total energy of the DFT / Hartree-Fock s.c.f. calculation      :          -1101.895957128 eV
  | Final zero-broadening corrected energy (caution - metals only) :          -1101.895957128 eV
  | For reference only, the value of 1 Hartree used in FHI-aims is :             27.211384500 eV

  Before relying on these values, please be sure to understand exactly which
  total energy value is referred to by a given number. Different objects may
  all carry the same name 'total energy'. Definitions:

  Total energy of the DFT / Hartree-Fock s.c.f. calculation:
  | Note that this energy does not include ANY quantities calculated after the
  | s.c.f. cycle, in particular not ANY RPA, MP2, etc. many-body perturbation terms.

  Final zero-broadening corrected energy:
  | For metallic systems only, a broadening of the occupation numbers at the Fermi
  | level can be extrapolated back to zero broadening by an electron-gas inspired
  | formula. For all systems that are not real metals, this value can be
  | meaningless and should be avoided.

------------------------------------------------------------------------------
  Methods described in the following list of references were used in this FHI-aims run.
  If you publish the results, please make sure to cite these reference if they apply.
  FHI-aims is an academic code, and for our developers (often, Ph.D. students
  and postdocs), scientific credit in the community is essential.
  Thank you for helping us!

  For any use of FHI-aims, please cite:

    Volker Blum, Ralf Gehrke, Felix Hanke, Paula Havu, Ville Havu,
    Xinguo Ren, Karsten Reuter, and Matthias Scheffler
    'Ab initio molecular simulations with numeric atom-centered orbitals'
    Computer Physics Communications 180, 2175-2196 (2009)
    http://dx.doi.org/10.1016/j.cpc.2009.06.022


  The scalable eigensolver library ELPA was used in your run.
  ELPA is essential especially for large systems on hundreds or thousands of CPUs.
  For ELPA, please cite:

    Andreas Marek, Volker Blum, Rainer Johanni, Ville Havu, Bruno Lang,
    Thomas Auckenthaler, Alexander Heinecke, Hans-Joachim Bungartz, and Hermann Lederer,
    'The ELPA Library - Scalable Parallel Eigenvalue Solutions
    for Electronic Structure Theory and Computational Science'
    The Journal of Physics: Condensed Matter 26, 213201 (2014).
    http://dx.doi.org/10.1088/0953-8984/26/21/213201


  The ELSI infrastructure was used in your run to solve the Kohn-Sham electronic structure.
  Please check out http://elsi-interchange.org to learn more.
  If scalability is important for your project, please acknowledge ELSI by citing:

    V. W-z. Yu, F. Corsetti, A. Garcia, W. P. Huhn, M. Jacquelin, W. Jia,
    B. Lange, L. Lin, J. Lu, W. Mi, A. Seifitokaldani, A. Vazquez-Mayagoitia,
    C. Yang, H. Yang, and V. Blum
    'ELSI: A unified software interface for Kohn-Sham electronic structure solvers'
    Computer Physics Communications 222, 267-285 (2018).
    http://dx.doi.org/10.1016/j.cpc.2017.09.007


  For the real-space grid partitioning and parallelization used in this calculation, please cite:

    Ville Havu, Volker Blum, Paula Havu, and Matthias Scheffler,
    'Efficient O(N) integration for all-electron electronic structure calculation'
    'using numerically tabulated basis functions'
    Journal of Computational Physics 228, 8367-8379 (2009).
    http://dx.doi.org/10.1016/j.jcp.2009.08.008

  Of course, there are many other important community references, e.g., those cited in the
  above references. Our list is limited to references that describe implementations in the
  FHI-aims code. The reason is purely practical (length of this list) - please credit others as well.

------------------------------------------------------------
          Leaving FHI-aims.
          Date     :  20200522, Time     :  174447.644

          Computational steps:
          | Number of self-consistency cycles          :           10
          | Number of SCF (re)initializations          :            1

          Detailed time accounting                     :  max(cpu_time)    wall_clock(cpu1)
          | Total time                                 :        5.120 s           6.205 s
          | Preparation time                           :        0.092 s           0.169 s
          | Boundary condition initalization           :        0.000 s           0.013 s
          | Grid partitioning                          :        0.060 s           0.058 s
          | Preloading free-atom quantities on grid    :        0.004 s           0.015 s
          | Free-atom superposition energy             :        0.028 s           0.025 s
          | Total time for integrations                :        1.540 s           1.540 s
          | Total time for solution of K.-S. equations :        0.060 s           0.051 s
          | Total time for density update              :        0.896 s           0.928 s
          | Total time for mixing                      :        0.084 s           0.121 s
          | Total time for Hartree multipole update    :        0.716 s           0.755 s
          | Total time for Hartree multipole sum       :        0.668 s           0.706 s
          | Total time for total energy evaluation     :        0.008 s           0.014 s
          | Total time for scaled ZORA corrections     :        0.000 s           0.000 s
          | Total time for vdW correction              :        0.112 s           0.136 s

          Partial memory accounting:
          | Residual value for overall tracked memory usage across tasks :           0.000 MB (should be 0.000 MB)
          | Peak values for overall tracked memory usage (after allocating gradient_basis_wave):
          |   Minimum:        0.598 MB (on task 4)
          |   Maximum:        0.605 MB (on task 1)
          |   Average:        0.602 MB
          | Largest tracked array allocation (gradient_basis_wave):
          |   Minimum:        0.368 MB (on task 1)
          |   Maximum:        0.368 MB (on task 1)
          |   Average:        0.368 MB
          Note:  These values currently only include a subset of arrays which are explicitly tracked.
          The "true" memory usage will be greater.

          Have a nice day.
------------------------------------------------------------
