  MPI-parallelism will be employed.
------------------------------------------------------------
          Invoking FHI-aims ...
          Version 171221_1
          Compiled on 2019/08/20 at 16:40:07 on host core401.

          When using FHI-aims, please cite the following reference:

          Volker Blum, Ralf Gehrke, Felix Hanke, Paula Havu,
          Ville Havu, Xinguo Ren, Karsten Reuter, and Matthias Scheffler,
          'Ab Initio Molecular Simulations with Numeric Atom-Centered Orbitals',
          Computer Physics Communications 180, 2175-2196 (2009)

          For any questions about FHI-aims, please visit the aimsclub website
          with its forums and wiki. Contributions to both the forums and the
          wiki are warmly encouraged - they are for you, and everyone is welcome there.

------------------------------------------------------------



  Date     :  20200517, Time     :  154433.110
  Time zero on CPU 1             :   0.160000000000000E-01  s.
  Internal wall clock time zero  :           358962273.110  s.

  FHI-aims created a unique identifier for this run for later identification
  aims_uuid : 3E33937D-738F-4496-A77A-6B25C4F216D5

  Using        4 parallel tasks.
  Task        0 on host core401 reporting.
  Task        1 on host core401 reporting.
  Task        2 on host core401 reporting.
  Task        3 on host core401 reporting.

  Performing system and environment tests:
  *** Environment variable OMP_NUM_THREADS is not set
  *** For performance reasons you might want to set it to 1
  | Maximum stacksize for task 0: unlimited
  | Maximum stacksize for task 1: unlimited
  | Maximum stacksize for task 2: unlimited
  | Maximum stacksize for task 3: unlimited
  | Current stacksize for task 0: unlimited
  | Current stacksize for task 1: unlimited
  | Current stacksize for task 2: unlimited
  | Current stacksize for task 3: unlimited
  | Checking for scalapack...
  | Testing pdtran()...
  | All pdtran() tests passed.

  Obtaining array dimensions for all initial allocations:
  
  -----------------------------------------------------------------------
  Parsing control.in (first pass over file, find array dimensions only).
  The contents of control.in will be repeated verbatim below
  unless switched off by setting 'verbatim_writeout .false.' .
  in the first line of control.in .
  -----------------------------------------------------------------------
  
  #########################################################################################
  #
  #   input file control.in tight for scaling studies
  #
  #########################################################################################
  #
  #  Physical model
  #
    xc                 pbe
  #  vdw_correction_hirshfeld
    many_body_dispersion vacuum=.true.:.true.:.true.
    spin               none
    relativistic       atomic_zora scalar
    charge             0.
  #  k_grid 1 1 1
  #
  #  SCF convergence
  #
    occupation_type    gaussian 0.1
    mixer              pulay
      n_max_pulay        5
      charge_mix_param   0.3
      sc_iter_limit      100
  #
    output             dipole
  #  collect_eigenvectors .false.
  #  use_local_index .false.
  #  use_alltoall .false.
  #  elpa_settings two_step_solver
  #  output elpa_timings
  #
  ################################################################################
  #
  #  FHI-aims code project
  #  VB, Fritz-Haber Institut, 2009
  #
  #  Suggested "tight" defaults for C atom (to be pasted into control.in file)
  #
  ################################################################################
    species        C
  #     global species definitions
      nucleus             6
      mass                12.0107
  #
      l_hartree           6
  #
      cut_pot             4.0  2.0  1.0
      basis_dep_cutoff    1e-4
  #
      radial_base         34 7.0
      radial_multiplier   2
      angular_grids specified
        division   0.2187   50
        division   0.4416  110
        division   0.6335  194
        division   0.7727  302
        division   0.8772  434
  #      division   0.9334  590
  #      division   0.9924  770
  #      division   1.0230  974
  #      division   1.5020 1202
  #     outer_grid  974
        outer_grid  434
  ################################################################################
  #
  #  Definition of "minimal" basis
  #
  ################################################################################
  #     valence basis states
      valence      2  s   2.
      valence      2  p   2.
  #     ion occupancy
      ion_occ      2  s   1.
      ion_occ      2  p   1.
  ################################################################################
  #
  #  Suggested additional basis functions. For production calculations,
  #  uncomment them one after another (the most important basis functions are
  #  listed first).
  #
  #  Constructed for dimers: 1.0 A, 1.25 A, 1.5 A, 2.0 A, 3.0 A
  #
  ################################################################################
  #  "First tier" - improvements: -1214.57 meV to -155.61 meV
       hydro 2 p 1.7
       hydro 3 d 6
       hydro 2 s 4.9
  #  "Second tier" - improvements: -67.75 meV to -5.23 meV
       hydro 4 f 9.8
       hydro 3 p 5.2
       hydro 3 s 4.3
       hydro 5 g 14.4
       hydro 3 d 6.2
  #  "Third tier" - improvements: -2.43 meV to -0.60 meV
  #     hydro 2 p 5.6
  #     hydro 2 s 1.4
  #     hydro 3 d 4.9
  #     hydro 4 f 11.2
  #  "Fourth tier" - improvements: -0.39 meV to -0.18 meV
  #     hydro 2 p 2.1
  #     hydro 5 g 16.4
  #     hydro 4 d 13.2
  #     hydro 3 s 13.6
  #     hydro 4 f 17.6
  #  Further basis functions - improvements: -0.08 meV and below
  #     hydro 3 s 2
  #     hydro 3 p 6
  #     hydro 4 d 20
  
  ################################################################################
  #
  #  FHI-aims code project
  #  VB, Fritz-Haber Institut, 2009
  #
  #  Suggested "tight" defaults for H atom (to be pasted into control.in file)
  #
  ################################################################################
    species        H
  #     global species definitions
      nucleus             1
      mass                1.00794
  #
      l_hartree           6
  #
      cut_pot             4.0  2.0  1.0
      basis_dep_cutoff    1e-4
  #
      radial_base         24 7.0
      radial_multiplier   2
      angular_grids       specified
        division   0.1930   50
        division   0.3175  110
        division   0.4293  194
        division   0.5066  302
        division   0.5626  434
  #      division   0.5922  590
  #      division   0.6227  974
  #      division   0.6868 1202
  #      outer_grid  770
        outer_grid  434
  ################################################################################
  #
  #  Definition of "minimal" basis
  #
  ################################################################################
  #     valence basis states
      valence      1  s   1.
  #     ion occupancy
      ion_occ      1  s   0.5
  ################################################################################
  #
  #  Suggested additional basis functions. For production calculations,
  #  uncomment them one after another (the most important basis functions are
  #  listed first).
  #
  #  Basis constructed for dimers: 0.5 A, 0.7 A, 1.0 A, 1.5 A, 2.5 A
  #
  ################################################################################
  #  "First tier" - improvements: -1014.90 meV to -62.69 meV
       hydro 2 s 2.1
       hydro 2 p 3.5
  #  "Second tier" - improvements: -12.89 meV to -1.83 meV
       hydro 1 s 0.85
       hydro 2 p 3.7
       hydro 2 s 1.2
       hydro 3 d 7
  #  "Third tier" - improvements: -0.25 meV to -0.12 meV
  #     hydro 4 f 11.2
  #     hydro 3 p 4.8
  #     hydro 4 d 9
  #     hydro 3 s 3.2
  ################################################################################
  #
  #  FHI-aims code project
  #  Volker Blum, Fritz Haber Institute Berlin, 2009
  #
  #  Suggested "tight" defaults for Si atom (to be pasted into control.in file)
  #
  #  Revised Jan 04, 2011, following tests (SiC) done by Lydia Nemec:
  #     d and g functions of tier 2 now enabled by default.
  #
  ################################################################################
  #  species        Si
  #     global species definitions
  #    nucleus             14
  #    mass                28.0855
  #
  #    l_hartree           6
  #
  #    cut_pot             4.0          2.0  1.0
  #    basis_dep_cutoff    1e-4
  #
  #    radial_base         42 7.0
  #    radial_multiplier   2
  #    angular_grids       specified
  #      division   0.4121   50
  #      division   0.7665  110
  #      division   1.0603  194
  #      division   1.2846  302
  #      division   1.4125  434
  #      division   1.4810  590
  #      division   1.5529  770
  #      division   1.6284  974
  #      division   2.6016 1202
  #      outer_grid   974
  #      outer_grid  434
  ################################################################################
  #
  #  Definition of "minimal" basis
  #
  ################################################################################
  #     valence basis states
  #    valence      3  s   2.
  #    valence      3  p   2.
  #     ion occupancy
  #    ion_occ      3  s   1.
  #    ion_occ      3  p   1.
  ################################################################################
  #
  #  Suggested additional basis functions. For production calculations,
  #  uncomment them one after another (the most important basis functions are
  #  listed first).
  #
  #  Constructed for dimers: 1.75 A, 2.0 A, 2.25 A, 2.75 A, 3.75 A
  #
  ################################################################################
  #  "First tier" - improvements: -571.96 meV to -37.03 meV
  #     hydro 3 d 4.2
  #     hydro 2 p 1.4
  #     hydro 4 f 6.2
  #     ionic 3 s auto
  #  "Second tier" - improvements: -16.76 meV to -3.03 meV
  #     hydro 3 d 9
  #     hydro 5 g 9.4
  #     hydro 4 p 4
  #     hydro 1 s 0.65
  #  "Third tier" - improvements: -3.89 meV to -0.60 meV
  #     ionic 3 d auto
  #     hydro 3 s 2.6
  #     hydro 4 f 8.4
  #     hydro 3 d 3.4
  #     hydro 3 p 7.8
  #  "Fourth tier" - improvements: -0.33 meV to -0.11 meV
  #     hydro 2 p 1.6
  #     hydro 5 g 10.8
  #     hydro 5 f 11.2
  #     hydro 3 d 1
  #     hydro 4 s 4.5
  #  Further basis functions that fell out of the optimization - noise
  #  level... < -0.08 meV
  #     hydro 4 d 6.6
  #     hydro 5 g 16.4
  #     hydro 4 d 9
  
  
  
  -----------------------------------------------------------------------
  Completed first pass over input file control.in .
  -----------------------------------------------------------------------
  
  
  -----------------------------------------------------------------------
  Parsing geometry.in (first pass over file, find array dimensions only).
  The contents of geometry.in will be repeated verbatim below
  unless switched off by setting 'verbatim_writeout .false.' .
  in the first line of geometry.in .
  -----------------------------------------------------------------------
  
  atom 0.0 0.0 0.0 H
  atom 0.3 0.3 0.3 H
  
  -----------------------------------------------------------------------
  Completed first pass over input file geometry.in .
  -----------------------------------------------------------------------
  

  Basic array size parameters:
  | Number of species                 :        2
  | Number of atoms                   :        2
  | Max. basis fn. angular momentum   :        4
  | Max. atomic/ionic basis occupied n:        2
  | Max. number of basis fn. types    :        2
  | Max. radial fns per species/type  :        8
  | Max. logarithmic grid size        :     1277
  | Max. radial integration grid size :       69
  | Max. angular integration grid size:      434
  | Max. angular grid division number :        8
  | Radial grid for Hartree potential :     1277
  | Number of spin channels           :        1

------------------------------------------------------------
          Reading file control.in.
------------------------------------------------------------
  XC: Using PBE gradient-corrected functionals.
  Using the default MBD implementation with analytical forces
  Spin treatment: No spin polarisation.
  Scalar relativistic treatment of kinetic energy: on-site free-atom approximation to ZORA.
  Charge =   0.000000E+00: Neutral system requested explicitly.
  Occupation type: Gaussian broadening, width =   0.100000E+00 eV.
  Using pulay charge density mixing.
  Pulay mixing - number of memorized iterations:    5
  Charge density mixing - mixing parameter:     0.3000
  Maximum number of s.-c. iterations  :   100
  Dipole moment will be written out.
 
  Reading configuration options for species C                   .
  | Found nuclear charge :   6.0000
  | Found atomic mass :    12.0107000000000      amu
  | Found l_max for Hartree potential  :   6
  | Found cutoff potl. onset [A], width [A], scale factor :    4.00000    2.00000    1.00000
  | Threshold for basis-dependent cutoff potential is   0.100000E-03
  | Found data for basic radial integration grid :    34 points, outermost radius =    7.000 A
  | Found multiplier for basic radial grid :   2
  | Found angular grid specification: user-specified.
  | Specified grid contains     6 separate shells.
  | Check grid settings after all constraints further below.
  | Found free-atom valence shell :  2 s   2.000
  | Found free-atom valence shell :  2 p   2.000
  | No ionic wave fns used. Skipping ion_occ.
  | No ionic wave fns used. Skipping ion_occ.
  | Found hydrogenic basis function :  2 p   1.700
  | Found hydrogenic basis function :  3 d   6.000
  | Found hydrogenic basis function :  2 s   4.900
  | Found hydrogenic basis function :  4 f   9.800
  | Found hydrogenic basis function :  3 p   5.200
  | Found hydrogenic basis function :  3 s   4.300
  | Found hydrogenic basis function :  5 g  14.400
  | Found hydrogenic basis function :  3 d   6.200
  Species C                   : Missing cutoff potential type.
  Defaulting to exp(1/x)/(1-x)^2 type cutoff potential.
  Species C : No 'logarithmic' tag. Using default grid for free atom:
  | Default logarithmic grid data [bohr] : 0.1000E-03 0.1000E+03 0.1012E+01
  Species C : On-site basis accuracy parameter (for Gram-Schmidt orthonormalisation) not specified.
  Using default value basis_acc =  0.1000000E-03.
  Species C                   : Using default innermost maximum threshold i_radial=  2 for radial functions.
  Species C                   : Default cutoff onset for free atom density etc. : 0.40000000E+01 AA.
  Species C                   : Basic radial grid will be enhanced according to radial_multiplier =   2, to contain    69 grid points.
 
  Reading configuration options for species H                   .
  | Found nuclear charge :   1.0000
  | Found atomic mass :    1.00794000000000      amu
  | Found l_max for Hartree potential  :   6
  | Found cutoff potl. onset [A], width [A], scale factor :    4.00000    2.00000    1.00000
  | Threshold for basis-dependent cutoff potential is   0.100000E-03
  | Found data for basic radial integration grid :    24 points, outermost radius =    7.000 A
  | Found multiplier for basic radial grid :   2
  | Found angular grid specification: user-specified.
  | Specified grid contains     6 separate shells.
  | Check grid settings after all constraints further below.
  | Found free-atom valence shell :  1 s   1.000
  | No ionic wave fns used. Skipping ion_occ.
  | Found hydrogenic basis function :  2 s   2.100
  | Found hydrogenic basis function :  2 p   3.500
  | Found hydrogenic basis function :  1 s   0.850
  | Found hydrogenic basis function :  2 p   3.700
  | Found hydrogenic basis function :  2 s   1.200
  | Found hydrogenic basis function :  3 d   7.000
  Species H                   : Missing cutoff potential type.
  Defaulting to exp(1/x)/(1-x)^2 type cutoff potential.
  Species H : No 'logarithmic' tag. Using default grid for free atom:
  | Default logarithmic grid data [bohr] : 0.1000E-03 0.1000E+03 0.1012E+01
  Species H : On-site basis accuracy parameter (for Gram-Schmidt orthonormalisation) not specified.
  Using default value basis_acc =  0.1000000E-03.
  Species H                   : Using default innermost maximum threshold i_radial=  2 for radial functions.
  Species H                   : Default cutoff onset for free atom density etc. : 0.40000000E+01 AA.
  Species H                   : Basic radial grid will be enhanced according to radial_multiplier =   2, to contain    49 grid points.
 
  Finished reading input file 'control.in'. Consistency checks are next.
 
  MPI_IN_PLACE appears to work with this MPI implementation.
  | Keeping use_mpi_in_place .true. (see manual).
  Target number of points in a grid batch is not set. Defaulting to  100
  Method for grid partitioning is not set. Defaulting to parallel hash+maxmin partitioning.
  Batch size limit is not set. Defaulting to    200
  By default, will store active basis functions for each batch.
  If in need of memory, prune_basis_once .false. can be used to disable this option.
  communication_type for Hartree potential was not specified.
  Defaulting to calc_hartree .
  Pulay mixer: Number of initial linear mixing iterations not set.
  Defaulting to    0 iterations.
  Work space size for distributed Hartree potential not set.
  Defaulting to   0.200000E+03 MB.
  Algorithm-dependent basis array size parameters:
  | n_max_pulay                         :        5
 * Notice: The s.c.f. convergence criterion sc_accuracy_rho was not provided.
 * We used to stop in this case, and ask the user to provide reasonable
 * scf convergence criteria. However, this led some users to employ criteria
 * that led to extremely long run times, e.g., for simple relaxation.
 * We now preset a default value for sc_accuracy_rho if it is not set.
 * You may still wish to check if this setting is too tight or too loose for your needs.
 * Based on n_atoms, FHI-aims chose sc_accuracy_rho =  0.100000E-05 .
  Presetting      1001 iterations before the initial mixing cycle
  is restarted anyway using the sc_init_iter criterion / keyword.
  Presetting a factor      1.000 between actual scf density residual
  and density convergence criterion sc_accuracy_rho below which sc_init_iter
  takes no effect.
 * No s.c.f. convergence criteria (sc_accuracy_*) were provided in control.in.
 * The run will proceed with a reasonable default guess, but please check whether.
 * the s.c.f. cycles seem to take too much or too little time.
  Calculation of forces was not defined in control.in. No forces will be calculated.
  Geometry relaxation not requested: no relaxation will be performed.
  No accuracy limit for integral partition fn. given. Defaulting to  0.1000E-14.
  No threshold value for u(r) in integrations given. Defaulting to  0.1000E-05.
  No accuracy for occupation numbers given. Defaulting to  0.1000E-12.
  No threshold value for occupation numbers given. Defaulting to  0.0000E+00.
  No accuracy for fermi level given. Defaulting to  0.1000E-19.
  Maximum # of iterations to find E_F not set. Defaulting to  200.
  Preferred method for the eigenvalue solver ('KS_method') not specified in 'control.in'.
  Calling BLACS routine to test compilation state
  Since ScaLAPACK support is enabled, defaulting to 'elsi'.
  Will not use alltoall communication since running on < 1024 CPUs.
  Threshold for basis singularities not set.
  Default threshold for basis singularities:  0.1000E-04
  partition_type (choice of integration weights) for integrals was not specified.
  | Using a version of the partition function of Stratmann and coworkers ('stratmann_smoother').
  | At each grid point, the set of atoms used to build the partition table is smoothly restricted to
  | only those atoms whose free-atom density would be non-zero at that grid point.
  Partitioning for Hartree potential was not defined. Using partition_type for integrals.
  | Adjusted default value of keyword multip_moments_threshold to:       0.10000000E-11
  | This value may affect high angular momentum components of the Hartree potential in periodic systems.
  No q(lm)/r^(l+1) cutoff set for long-range Hartree potential.
  | Using default value of  0.100000E-09 .
  | Verify using the multipole_threshold keyword.
  Defaulting to new monopole extrapolation.
  Density update method: automatic selection selected.
------------------------------------------------------------


------------------------------------------------------------
          Reading geometry description geometry.in.
------------------------------------------------------------
  Input structure read successfully.
  The structure contains        2 atoms,  and a total of          2.000 electrons.

  Input geometry:
  | No unit cell requested.
  | Atomic structure:
  |       Atom                x [A]            y [A]            z [A]
  |    1: Species H             0.00000000        0.00000000        0.00000000
  |    2: Species H             0.30000000        0.30000000        0.30000000
  |

  | The smallest distance between any two atoms is         0.51961524 AA.
  |
  | The first atom of this pair is atom number                      1 .
  | The second atom of this pair is atom number                     2 .

  Number of empty states per atom not set in control.in - providing a guess from actual geometry.
  | Total number of empty states used during s.c.f. cycle:        3
  If you use a very high smearing, use empty_states (per atom!) in control.in to increase this value.

  Structure-dependent array size parameters: 
  | Maximum number of distinct radial functions  :       18
  | Maximum number of basis functions            :       30
  | Number of Kohn-Sham states (occupied + empty):        4
------------------------------------------------------------

------------------------------------------------------------
          Preparing all fixed parts of the calculation.
------------------------------------------------------------
  Determining machine precision:
    2.225073858507201E-308
  Setting up grids for atomic and cluster calculations.

  Creating wave function, potential, and density for free atoms.

  Species: C

  List of occupied orbitals and eigenvalues:
    n    l              occ      energy [Ha]    energy [eV]
    1    0           2.0000       -10.049212      -273.4530
    2    0           2.0000        -0.504761       -13.7352
    2    1           2.0000        -0.193631        -5.2690


  Species: H

  List of occupied orbitals and eigenvalues:
    n    l              occ      energy [Ha]    energy [eV]
    1    0           1.0000        -0.238386        -6.4868

  Creating fixed part of basis set: Ionic, confined, hydrogenic.
 
  C                    hydrogenic:
 
  List of hydrogenic basis orbitals: 
    n    l      effective z      eigenvalue [eV]  inner max. [A]     outer max. [A]     outer radius [A]   
    2    1         1.700000        -9.8152           1.245706           1.245706           5.401630
    3    2         6.000000       -54.4226           0.792453           0.792453           4.178599
    2    0         4.900000       -81.6681           0.082559           0.562749           3.353238
    4    3         9.800000       -81.6681           0.863254           0.863254           4.028125
    3    1         5.200000       -40.8774           0.305389           1.215618           4.898362
    3    0         4.300000       -27.9508           0.091041           1.610311           5.401630
    5    4        14.400000      -112.8510           0.917666           0.917666           3.883070
    3    2         6.200000       -58.1113           0.763917           0.763917           4.077671
 
 
  H                    hydrogenic:
 
  List of hydrogenic basis orbitals: 
    n    l      effective z      eigenvalue [eV]  inner max. [A]     outer max. [A]     outer radius [A]   
    2    0         2.100000       -14.9965           0.193243           1.317208           5.373006
    2    1         3.500000       -41.6672           0.602369           0.602369           4.056063
    1    0         0.850000        -9.8292           0.624871           0.624871           5.373006
    2    1         3.700000       -46.5653           0.573622           0.573622           3.910002
    2    0         1.200000        -4.5995           0.334980           2.228188           5.505995
    3    2         7.000000       -74.0753           0.680699           0.680699           3.769201
 

  Adding cutoff potential to free-atom effective potential.
  Creating atomic-like basis functions for current effective potential.

  Species C                   :

  List of atomic basis orbitals and eigenvalues:
    n    l      energy [Ha]    energy [eV]    outer radius [A]
    1    0       -10.049212      -273.4530       1.934409
    2    0        -0.504761       -13.7352       5.271162
    2    1        -0.193631        -5.2690       5.401630


  Species H                   :

  List of atomic basis orbitals and eigenvalues:
    n    l      energy [Ha]    energy [eV]    outer radius [A]
    1    0        -0.238386        -6.4868       5.373006

  Assembling full basis from fixed parts.
  | Species C :   atomic orbital   1 s accepted.
  | Species C :    hydro orbital   2 s accepted.
  | Species C :   atomic orbital   2 s accepted.
  | Species C :    hydro orbital   3 s accepted.
  | Species C :    hydro orbital   3 p accepted.
  | Species C :   atomic orbital   2 p accepted.
  | Species C :    hydro orbital   2 p accepted.
  | Species C :    hydro orbital   3 d accepted.
  | Species C :    hydro orbital   3 d accepted.
  | Species C :    hydro orbital   4 f accepted.
  | Species C :    hydro orbital   5 g accepted.
  | Species H :   atomic orbital   1 s accepted.
  | Species H :    hydro orbital   2 s accepted.
  | Species H :    hydro orbital   1 s accepted.
  | Species H :    hydro orbital   2 s accepted.
  | Species H :    hydro orbital   2 p accepted.
  | Species H :    hydro orbital   2 p accepted.
  | Species H :    hydro orbital   3 d accepted.
 
  Basis size parameters after reduction:
  | Total number of radial functions:       18
  | Total number of basis functions :       30
 
  Per-task memory consumption for arrays in subroutine allocate_ext:
  |           5.886320MB.
  Testing on-site integration grid accuracy.
  |  Species  Function  <phi|h_atom|phi> (log., in eV)  <phi|h_atom|phi> (rad., in eV)
           1        1               -273.4529725981               -273.4529710451
           1        2                -10.7721037329                -10.7721022102
           1        3                 17.6044132585                 17.6044162052
           1        4                 53.7706460564                 53.7706913681
           1        5                 15.0973290351                 15.0973256011
           1        6                  3.8545134677                  3.8545724657
           1        7                 12.1156992586                 12.1182024423
           1        8                 29.4352039288                 29.4352041805
           1        9                 54.8741144697                 54.8740268719
           1       10                 59.3556032036                 59.3556031370
           1       11                 93.4551837140                 93.4551837996
           2       12                 -6.4870767962                 -6.4871688290
           2       13                 13.5032046589                 13.5028982997
           2       14                 32.8195184817                 32.8119941656
           2       15                 33.8513856511                 33.7670005767 ***
           2       16                 28.8544614965                 28.8544615203
           2       17                 59.6326952547                 59.6327656460
           2       18                 60.2719308513                 60.2719305949
 * Note: Onsite integrals marked "***" above are less accurate than
 * onsite_accuracy_threshold =    0.03000 eV. Usually, this is harmless.
 * When in doubt, tighten the "radial" and/or "radial_multiplier" flags to check.

  Preparing densities etc. for the partition functions (integrals / Hartree potential).

  Preparations completed.
  max(cpu_time)          :      0.092 s.
  Wall clock time (cpu1) :      0.093 s.
------------------------------------------------------------

------------------------------------------------------------
          Begin self-consistency loop: Initialization.

          Date     :  20200517, Time     :  154433.243
------------------------------------------------------------

  Initializing index lists of integration centers etc. from given atomic structure:
  | Number of centers in hartree potential         :         2
  | Number of centers in hartree multipole         :         2
  | Number of centers in electron density summation:         2
  | Number of centers in basis integrals           :         2
  | Number of centers in integrals                 :         2
  | Number of centers in hamiltonian               :         2
  * Using 4 tasks for Scalapack Eigenvalue solver.
  Detailed listing of tasks and assigned k-points:
  (for non-periodic systems, the "k-point" denotes an internal label only)
   Task     0 k-point     1 on core401
   Task     1 k-point     1 on core401
   Task     2 k-point     1 on core401
   Task     3 k-point     1 on core401
  Tasks:     4 split into      2 X      2 BLACS grid
  Calculating block size based on n_basis =           30 max_nprow =            2 max_npcol =            2
  ScaLAPACK block size set to:            8
  Allocating        0.002 MB for ovlp
  Allocating        0.002 MB for ham
  Allocating        0.002 MB for eigenvec
  Required Scalapack workspace - INTEGER:            1 REAL:             1
  Partitioning the integration grid into batches with parallel hashing+maxmin method.
  | Number of batches:      484
  | Maximal batch size:     123
  | Minimal batch size:      50
  | Average batch size:      59.711
  | Standard deviation of batch sizes:      13.690

  Integration load balanced across     4 MPI tasks.
  Work distribution over tasks is as follows:
  Task     0 has       7185 integration points.
  Task     1 has       7248 integration points.
  Task     2 has       7237 integration points.
  Task     3 has       7230 integration points.
  Initializing partition tables, free-atom densities, potentials, etc. across the integration grid (initialize_grid_storage).
  | initialize_grid_storage: Actual outermost partition radius vs. multipole_radius_free
  | (-- VB: in principle, multipole_radius_free should be larger, hence this output)
  | Species        1: Confinement radius =              6.000000000000000 AA, multipole_radius_free =              6.029870734432609 AA.
  | Species        1: outer_partition_radius set to              6.029870734432609 AA .
  | Species        2: Confinement radius =              6.000000000000000 AA, multipole_radius_free =              6.071692442739658 AA.
  | Species        2: outer_partition_radius set to              6.071692442739658 AA .
  | Original list of interatomic distances with           2 x          2 entries is created.
  | Net number of integration points:    28900
  | of which are non-zero points    :    26276
  Renormalizing the initial density to the exact electron count on the 3D integration grid.
  | Initial density: Formal number of electrons (from input files) :       2.0000000000
  | Integrated number of electrons on 3D grid     :       1.9999987085
  | Charge integration error                      :      -0.0000012915
  | Normalization factor for density and gradient :       1.0000006457
  Obtaining max. number of non-zero basis functions in each batch (get_n_compute_maxes).
  | Maximal number of non-zero basis functions:       30 in task     0
  | Maximal number of non-zero basis functions:       30 in task     1
  | Maximal number of non-zero basis functions:       30 in task     2
  | Maximal number of non-zero basis functions:       30 in task     3
  Selecting the method for density update.
  Loop over occupied states selected for charge density update.
  Allocating        0.001 MB for KS_eigenvector
  Integrating Hamiltonian matrix: batch-based integration.
  Time summed over all CPUs for integration: real work        0.043 s, elapsed        0.044 s
  Integrating overlap matrix.
  Time summed over all CPUs for integration: real work        0.013 s, elapsed        0.014 s
  Deallocating overlap matrix.

  Updating Kohn-Sham eigenvalues and eigenvectors using ELSI and the ELPA eigensolver.
  ELPA settings:
  | ELPA solver          1
  | Time full => band           :     0.000 s
  | Time band => tridiagonal    :     0.000 s
  | Time solve tridiagonal      :     0.000 s
  Overlap matrix is nonsingular
  | Lowest eigenvalue of overlap  :  0.81E-04
  | Highest eigenvalue of overlap :  0.20E+01
  Finished singularity check of overlap matrix
  | Time :     0.001 s
  Finished Cholesky decomposition
  | Time :     0.000 s
  Finished transformation to standard eigenproblem
  | Time :     0.000 s
  Starting ELPA eigensolver
  | Time full => tridiagonal    :     0.000 s
  | Time solve tridiagonal      :     0.000 s
  | Time ev tridiagonal => full :     0.000 s
  Finished solving standard eigenproblem
  | Time :     0.000 s
  Finished back-transformation of eigenvectors
  | Time :     0.000 s

  Obtaining occupation numbers and chemical potential using ELSI.
  | Chemical potential (Fermi level):    -6.39519009eV
  Writing Kohn-Sham eigenvalues.

  State    Occupation    Eigenvalue [Ha]    Eigenvalue [eV]
      1       2.00000          -0.621567          -16.91369
      2       0.00000           0.003079            0.08379
      3       0.00000           0.010089            0.27452
      4       0.00000           0.151529            4.12331

  Highest occupied state (VBM) at    -16.91368920 eV
  | Occupation number:      2.00000000

  Lowest unoccupied state (CBM) at     0.08378983 eV
  | Occupation number:      0.00000000

  Overall HOMO-LUMO gap:     16.99747903 eV.
  Calculating total energy contributions from superposition of free atom densities.

  Total energy components:
  | Sum of eigenvalues            :          -1.24313331 Ha         -33.82737839 eV
  | XC energy correction          :          -0.58235588 Ha         -15.84670986 eV
  | XC potential correction       :           0.74819530 Ha          20.35943005 eV
  | Free-atom electrostatic energy:          -0.08387907 Ha          -2.28246551 eV
  | Hartree energy correction     :           0.00000000 Ha           0.00000000 eV
  | Entropy correction            :           0.00000000 Ha           0.00000000 eV
  | ---------------------------
  | Total energy                  :          -1.16117295 Ha         -31.59712371 eV
  | Total energy, T -> 0          :          -1.16117295 Ha         -31.59712371 eV  <-- do not rely on this value for anything but (periodic) metals
  | Electronic free energy        :          -1.16117295 Ha         -31.59712371 eV

  Derived energy quantities:
  | Kinetic energy                :           0.59804135 Ha          16.27353301 eV
  | Electrostatic energy          :          -1.17685842 Ha         -32.02394686 eV
  | Energy correction for multipole
  | error in Hartree potential    :           0.00000000 Ha           0.00000000 eV
  | Sum of eigenvalues per atom                           :         -16.91368920 eV
  | Total energy (T->0) per atom                          :         -15.79856185 eV  <-- do not rely on this value for anything but (periodic) metals
  | Electronic free energy per atom                       :         -15.79856185 eV
  Initialize hartree_potential_storage
  Max. number of atoms included in rho_multipole:            2

  End scf initialization - timings             :  max(cpu_time)    wall_clock(cpu1)
  | Time for scf. initialization               :        0.048 s           0.046 s
  | Boundary condition initialization          :        0.000 s           0.000 s
  | Integration                                :        0.016 s           0.016 s
  | Solution of K.-S. eqns.                    :        0.004 s           0.002 s
  | Grid partitioning                          :        0.012 s           0.010 s
  | Preloading free-atom quantities on grid    :        0.008 s           0.008 s
  | Free-atom superposition energy             :        0.004 s           0.004 s
  | Total energy evaluation                    :        0.000 s           0.001 s

  Partial memory accounting:
  | Current value for overall tracked memory usage on task 0  :           0.012 MB
  | Peak value for overall tracked memory usage on task 0     :           0.112 MB after allocating wave
  | Largest tracked array allocation on task 0 so far         :           0.030 MB  when allocating H_times_psi
  Note:  These values currently only include a subset of arrays which are explicitly tracked.
  The "true" memory usage will be greater.
------------------------------------------------------------

------------------------------------------------------------
          Begin self-consistency iteration #    1

  Date     :  20200517, Time     :  154433.291
------------------------------------------------------------
  Evaluating new KS density.
  Integration grid: deviation in total charge (<rho> - N_e) =   4.440892E-16
  Pulay mixing of updated and previous charge densities.

  Evaluating partitioned Hartree potential by multipole expansion.
  | Analytical far-field extrapolation by fixed multipoles:
  | Hartree multipole sum: apparent total charge =  -0.425117E-06
  Summing up the Hartree potential.
  Time summed over all CPUs for potential: real work        0.021 s, elapsed        0.021 s
  | RMS charge density error from multipole expansion :   0.781679E-03

  Integrating Hamiltonian matrix: batch-based integration.
  Time summed over all CPUs for integration: real work        0.056 s, elapsed        0.093 s => Consider using load balancing!

  Updating Kohn-Sham eigenvalues and eigenvectors using ELSI and the ELPA eigensolver.
  ELPA settings:
  | ELPA solver          1
  Finished transformation to standard eigenproblem
  | Time :     0.000 s
  Starting ELPA eigensolver
  | Time full => tridiagonal    :     0.000 s
  | Time solve tridiagonal      :     0.000 s
  | Time ev tridiagonal => full :     0.000 s
  Finished solving standard eigenproblem
  | Time :     0.001 s
  Finished back-transformation of eigenvectors
  | Time :     0.000 s

  Obtaining occupation numbers and chemical potential using ELSI.
  | Chemical potential (Fermi level):    -5.15555159eV
  Writing Kohn-Sham eigenvalues.

  State    Occupation    Eigenvalue [Ha]    Eigenvalue [eV]
      1       2.00000          -0.548540          -14.92652
      2       0.00000           0.017547            0.47747
      3       0.00000           0.020000            0.54423
      4       0.00000           0.169614            4.61542

  Highest occupied state (VBM) at    -14.92652290 eV
  | Occupation number:      2.00000000

  Lowest unoccupied state (CBM) at     0.47747298 eV
  | Occupation number:      0.00000000

  Overall HOMO-LUMO gap:     15.40399588 eV.

  Total energy components:
  | Sum of eigenvalues            :          -1.09707927 Ha         -29.85304580 eV
  | XC energy correction          :          -0.65019675 Ha         -17.69275388 eV
  | XC potential correction       :           0.83441731 Ha          22.70565037 eV
  | Free-atom electrostatic energy:          -0.08387907 Ha          -2.28246551 eV
  | Hartree energy correction     :          -0.13278606 Ha          -3.61329245 eV
  | Entropy correction            :           0.00000000 Ha           0.00000000 eV
  | ---------------------------
  | Total energy                  :          -1.12952383 Ha         -30.73590726 eV
  | Total energy, T -> 0          :          -1.12952383 Ha         -30.73590726 eV  <-- do not rely on this value for anything but (periodic) metals
  | Electronic free energy        :          -1.12952383 Ha         -30.73590726 eV

  Derived energy quantities:
  | Kinetic energy                :           0.94420908 Ha          25.69323641 eV
  | Electrostatic energy          :          -1.42353616 Ha         -38.73638979 eV
  | Energy correction for multipole
  | error in Hartree potential    :          -0.00000133 Ha          -0.00003612 eV
  | Sum of eigenvalues per atom                           :         -14.92652290 eV
  | Total energy (T->0) per atom                          :         -15.36795363 eV  <-- do not rely on this value for anything but (periodic) metals
  | Electronic free energy per atom                       :         -15.36795363 eV

  Self-consistency convergence accuracy:
  | Change of charge density      :  0.2790E+00
  | Change of sum of eigenvalues  :  0.3974E+01 eV
  | Change of total energy        :  0.8612E+00 eV

  End self-consistency iteration #     1       :  max(cpu_time)    wall_clock(cpu1)
  | Time for this iteration                    :        0.052 s           0.053 s
  | Charge density update                      :        0.012 s           0.007 s
  | Density mixing                             :        0.000 s           0.001 s
  | Hartree multipole update                   :        0.004 s           0.001 s
  | Hartree multipole summation                :        0.008 s           0.007 s
  | Integration                                :        0.024 s           0.023 s
  | Solution of K.-S. eqns.                    :        0.004 s           0.003 s
  | Total energy evaluation                    :        0.000 s           0.002 s

  Partial memory accounting:
  | Current value for overall tracked memory usage on task 0  :           0.012 MB
  | Peak value for overall tracked memory usage on task 0     :           0.130 MB after allocating gradient_basis_wave
  | Largest tracked array allocation on task 0 so far         :           0.089 MB  when allocating gradient_basis_wave
  Note:  These values currently only include a subset of arrays which are explicitly tracked.
  The "true" memory usage will be greater.
------------------------------------------------------------

------------------------------------------------------------
          Begin self-consistency iteration #    2

  Date     :  20200517, Time     :  154433.345
------------------------------------------------------------
  Evaluating new KS density.
  Integration grid: deviation in total charge (<rho> - N_e) =   0.000000E+00
  Pulay mixing of updated and previous charge densities.

  Evaluating partitioned Hartree potential by multipole expansion.
  | Analytical far-field extrapolation by fixed multipoles:
  | Hartree multipole sum: apparent total charge =   0.972640E-06
  Summing up the Hartree potential.
  Time summed over all CPUs for potential: real work        0.025 s, elapsed        0.037 s
  | RMS charge density error from multipole expansion :   0.205406E-02

  Integrating Hamiltonian matrix: batch-based integration.
  Time summed over all CPUs for integration: real work        0.053 s, elapsed        0.084 s => Consider using load balancing!

  Updating Kohn-Sham eigenvalues and eigenvectors using ELSI and the ELPA eigensolver.
  ELPA settings:
  | ELPA solver          1
  Finished transformation to standard eigenproblem
  | Time :     0.000 s
  Starting ELPA eigensolver
  | Time full => tridiagonal    :     0.000 s
  | Time solve tridiagonal      :     0.000 s
  | Time ev tridiagonal => full :     0.000 s
  Finished solving standard eigenproblem
  | Time :     0.000 s
  Finished back-transformation of eigenvectors
  | Time :     0.000 s

  Obtaining occupation numbers and chemical potential using ELSI.
  | Chemical potential (Fermi level):    -3.00162561eV
  Highest occupied state (VBM) at    -11.51933679 eV
  | Occupation number:      2.00000000

  Lowest unoccupied state (CBM) at     1.13268161 eV
  | Occupation number:      0.00000000

  Overall HOMO-LUMO gap:     12.65201840 eV.

  Checking to see if s.c.f. parameters should be adjusted.

  Total energy components:
  | Sum of eigenvalues            :          -0.84665569 Ha         -23.03867359 eV
  | XC energy correction          :          -0.78058256 Ha         -21.24073210 eV
  | XC potential correction       :           1.00162465 Ha          27.25559359 eV
  | Free-atom electrostatic energy:          -0.08387907 Ha          -2.28246551 eV
  | Hartree energy correction     :          -0.39836768 Ha         -10.84013625 eV
  | Entropy correction            :           0.00000000 Ha           0.00000000 eV
  | ---------------------------
  | Total energy                  :          -1.10786035 Ha         -30.14641385 eV
  | Total energy, T -> 0          :          -1.10786035 Ha         -30.14641385 eV  <-- do not rely on this value for anything but (periodic) metals
  | Electronic free energy        :          -1.10786035 Ha         -30.14641385 eV

  Derived energy quantities:
  | Kinetic energy                :           1.45078938 Ha          39.47798770 eV
  | Electrostatic energy          :          -1.77806717 Ha         -48.38366945 eV
  | Energy correction for multipole
  | error in Hartree potential    :           0.00000367 Ha           0.00009987 eV
  | Sum of eigenvalues per atom                           :         -11.51933679 eV
  | Total energy (T->0) per atom                          :         -15.07320693 eV  <-- do not rely on this value for anything but (periodic) metals
  | Electronic free energy per atom                       :         -15.07320693 eV

  Self-consistency convergence accuracy:
  | Change of charge density      :  0.1726E+00
  | Change of sum of eigenvalues  :  0.6814E+01 eV
  | Change of total energy        :  0.5895E+00 eV

  End self-consistency iteration #     2       :  max(cpu_time)    wall_clock(cpu1)
  | Time for this iteration                    :        0.048 s           0.049 s
  | Charge density update                      :        0.012 s           0.011 s
  | Density mixing                             :        0.004 s           0.000 s
  | Hartree multipole update                   :        0.004 s           0.005 s
  | Hartree multipole summation                :        0.008 s           0.009 s
  | Integration                                :        0.024 s           0.022 s
  | Solution of K.-S. eqns.                    :        0.004 s           0.001 s
  | Total energy evaluation                    :        0.000 s           0.000 s

  Partial memory accounting:
  | Current value for overall tracked memory usage on task 0  :           0.012 MB
  | Peak value for overall tracked memory usage on task 0     :           0.130 MB after allocating gradient_basis_wave
  | Largest tracked array allocation on task 0 so far         :           0.089 MB  when allocating gradient_basis_wave
  Note:  These values currently only include a subset of arrays which are explicitly tracked.
  The "true" memory usage will be greater.
------------------------------------------------------------

------------------------------------------------------------
          Begin self-consistency iteration #    3

  Date     :  20200517, Time     :  154433.394
------------------------------------------------------------
  Evaluating new KS density.
  Integration grid: deviation in total charge (<rho> - N_e) =   4.440892E-16
  Pulay mixing of updated and previous charge densities.

  Evaluating partitioned Hartree potential by multipole expansion.
  | Analytical far-field extrapolation by fixed multipoles:
  | Hartree multipole sum: apparent total charge =   0.783306E-06
  Summing up the Hartree potential.
  Time summed over all CPUs for potential: real work        0.034 s, elapsed        0.073 s
  | RMS charge density error from multipole expansion :   0.187605E-02

  Integrating Hamiltonian matrix: batch-based integration.
  Time summed over all CPUs for integration: real work        0.050 s, elapsed        0.073 s => Consider using load balancing!

  Updating Kohn-Sham eigenvalues and eigenvectors using ELSI and the ELPA eigensolver.
  ELPA settings:
  | ELPA solver          1
  Finished transformation to standard eigenproblem
  | Time :     0.000 s
  Starting ELPA eigensolver
  | Time full => tridiagonal    :     0.000 s
  | Time solve tridiagonal      :     0.000 s
  | Time ev tridiagonal => full :     0.000 s
  Finished solving standard eigenproblem
  | Time :     0.000 s
  Finished back-transformation of eigenvectors
  | Time :     0.000 s

  Obtaining occupation numbers and chemical potential using ELSI.
  | Chemical potential (Fermi level):    -3.25922738eV
  Highest occupied state (VBM) at    -11.95023728 eV
  | Occupation number:      2.00000000

  Lowest unoccupied state (CBM) at     1.08371773 eV
  | Occupation number:      0.00000000

  Overall HOMO-LUMO gap:     13.03395501 eV.

  Total energy components:
  | Sum of eigenvalues            :          -0.87832630 Ha         -23.90047456 eV
  | XC energy correction          :          -0.76238421 Ha         -20.74552986 eV
  | XC potential correction       :           0.97829661 Ha          26.62080529 eV
  | Free-atom electrostatic energy:          -0.08387907 Ha          -2.28246551 eV
  | Hartree energy correction     :          -0.36169974 Ha          -9.84235080 eV
  | Entropy correction            :           0.00000000 Ha           0.00000000 eV
  | ---------------------------
  | Total energy                  :          -1.10799270 Ha         -30.15001545 eV
  | Total energy, T -> 0          :          -1.10799270 Ha         -30.15001545 eV  <-- do not rely on this value for anything but (periodic) metals
  | Electronic free energy        :          -1.10799270 Ha         -30.15001545 eV

  Derived energy quantities:
  | Kinetic energy                :           1.38377808 Ha          37.65451741 eV
  | Electrostatic energy          :          -1.72938657 Ha         -47.05900300 eV
  | Energy correction for multipole
  | error in Hartree potential    :           0.00001304 Ha           0.00035492 eV
  | Sum of eigenvalues per atom                           :         -11.95023728 eV
  | Total energy (T->0) per atom                          :         -15.07500773 eV  <-- do not rely on this value for anything but (periodic) metals
  | Electronic free energy per atom                       :         -15.07500773 eV

  Self-consistency convergence accuracy:
  | Change of charge density      :  0.1268E-01
  | Change of sum of eigenvalues  : -0.8618E+00 eV
  | Change of total energy        : -0.3602E-02 eV

  End self-consistency iteration #     3       :  max(cpu_time)    wall_clock(cpu1)
  | Time for this iteration                    :        0.064 s           0.064 s
  | Charge density update                      :        0.024 s           0.022 s
  | Density mixing                             :        0.000 s           0.001 s
  | Hartree multipole update                   :        0.004 s           0.002 s
  | Hartree multipole summation                :        0.020 s           0.019 s
  | Integration                                :        0.020 s           0.018 s
  | Solution of K.-S. eqns.                    :        0.000 s           0.001 s
  | Total energy evaluation                    :        0.000 s           0.001 s

  Partial memory accounting:
  | Current value for overall tracked memory usage on task 0  :           0.012 MB
  | Peak value for overall tracked memory usage on task 0     :           0.130 MB after allocating gradient_basis_wave
  | Largest tracked array allocation on task 0 so far         :           0.089 MB  when allocating gradient_basis_wave
  Note:  These values currently only include a subset of arrays which are explicitly tracked.
  The "true" memory usage will be greater.
------------------------------------------------------------

------------------------------------------------------------
          Begin self-consistency iteration #    4

  Date     :  20200517, Time     :  154433.458
------------------------------------------------------------
  Evaluating new KS density.
  Integration grid: deviation in total charge (<rho> - N_e) =  -1.332268E-15
  Pulay mixing of updated and previous charge densities.

  Evaluating partitioned Hartree potential by multipole expansion.
  | Analytical far-field extrapolation by fixed multipoles:
  | Hartree multipole sum: apparent total charge =   0.871042E-06
  Summing up the Hartree potential.
  Time summed over all CPUs for potential: real work        0.029 s, elapsed        0.054 s
  | RMS charge density error from multipole expansion :   0.197519E-02

  Integrating Hamiltonian matrix: batch-based integration.
  Time summed over all CPUs for integration: real work        0.051 s, elapsed        0.081 s => Consider using load balancing!

  Updating Kohn-Sham eigenvalues and eigenvectors using ELSI and the ELPA eigensolver.
  ELPA settings:
  | ELPA solver          1
  Finished transformation to standard eigenproblem
  | Time :     0.000 s
  Starting ELPA eigensolver
  | Time full => tridiagonal    :     0.004 s
  | Time solve tridiagonal      :     0.000 s
  | Time ev tridiagonal => full :     0.000 s
  Finished solving standard eigenproblem
  | Time :     0.004 s
  Finished back-transformation of eigenvectors
  | Time :     0.000 s

  Obtaining occupation numbers and chemical potential using ELSI.
  | Chemical potential (Fermi level):    -3.03311313eV
  Highest occupied state (VBM) at    -11.65563761 eV
  | Occupation number:      2.00000000

  Lowest unoccupied state (CBM) at     1.21914267 eV
  | Occupation number:      0.00000000

  Overall HOMO-LUMO gap:     12.87478028 eV.

  Total energy components:
  | Sum of eigenvalues            :          -0.85667362 Ha         -23.31127523 eV
  | XC energy correction          :          -0.77397243 Ha         -21.06086150 eV
  | XC potential correction       :           0.99329660 Ha          27.02897565 eV
  | Free-atom electrostatic energy:          -0.08387907 Ha          -2.28246551 eV
  | Hartree energy correction     :          -0.38658281 Ha         -10.51945342 eV
  | Entropy correction            :           0.00000000 Ha           0.00000000 eV
  | ---------------------------
  | Total energy                  :          -1.10781133 Ha         -30.14508001 eV
  | Total energy, T -> 0          :          -1.10781133 Ha         -30.14508001 eV  <-- do not rely on this value for anything but (periodic) metals
  | Electronic free energy        :          -1.10781133 Ha         -30.14508001 eV

  Derived energy quantities:
  | Kinetic energy                :           1.41958710 Ha          38.62893040 eV
  | Electrostatic energy          :          -1.75342599 Ha         -47.71314890 eV
  | Energy correction for multipole
  | error in Hartree potential    :           0.00001981 Ha           0.00053917 eV
  | Sum of eigenvalues per atom                           :         -11.65563761 eV
  | Total energy (T->0) per atom                          :         -15.07254001 eV  <-- do not rely on this value for anything but (periodic) metals
  | Electronic free energy per atom                       :         -15.07254001 eV

  Self-consistency convergence accuracy:
  | Change of charge density      :  0.1494E-01
  | Change of sum of eigenvalues  :  0.5892E+00 eV
  | Change of total energy        :  0.4935E-02 eV

  End self-consistency iteration #     4       :  max(cpu_time)    wall_clock(cpu1)
  | Time for this iteration                    :        0.056 s           0.055 s
  | Charge density update                      :        0.016 s           0.013 s
  | Density mixing                             :        0.004 s           0.001 s
  | Hartree multipole update                   :        0.004 s           0.001 s
  | Hartree multipole summation                :        0.016 s           0.014 s
  | Integration                                :        0.024 s           0.021 s
  | Solution of K.-S. eqns.                    :        0.004 s           0.005 s
  | Total energy evaluation                    :        0.000 s           0.000 s

  Partial memory accounting:
  | Current value for overall tracked memory usage on task 0  :           0.012 MB
  | Peak value for overall tracked memory usage on task 0     :           0.130 MB after allocating gradient_basis_wave
  | Largest tracked array allocation on task 0 so far         :           0.089 MB  when allocating gradient_basis_wave
  Note:  These values currently only include a subset of arrays which are explicitly tracked.
  The "true" memory usage will be greater.
------------------------------------------------------------

------------------------------------------------------------
          Begin self-consistency iteration #    5

  Date     :  20200517, Time     :  154433.513
------------------------------------------------------------
  Evaluating new KS density.
  Integration grid: deviation in total charge (<rho> - N_e) =   2.220446E-15
  Pulay mixing of updated and previous charge densities.

  Evaluating partitioned Hartree potential by multipole expansion.
  | Analytical far-field extrapolation by fixed multipoles:
  | Hartree multipole sum: apparent total charge =   0.876404E-06
  Summing up the Hartree potential.
  Time summed over all CPUs for potential: real work        0.026 s, elapsed        0.036 s
  | RMS charge density error from multipole expansion :   0.198082E-02

  Integrating Hamiltonian matrix: batch-based integration.
  Time summed over all CPUs for integration: real work        0.058 s, elapsed        0.109 s => Consider using load balancing!

  Updating Kohn-Sham eigenvalues and eigenvectors using ELSI and the ELPA eigensolver.
  ELPA settings:
  | ELPA solver          1
  Finished transformation to standard eigenproblem
  | Time :     0.000 s
  Starting ELPA eigensolver
  | Time full => tridiagonal    :     0.000 s
  | Time solve tridiagonal      :     0.000 s
  | Time ev tridiagonal => full :     0.000 s
  Finished solving standard eigenproblem
  | Time :     0.000 s
  Finished back-transformation of eigenvectors
  | Time :     0.000 s

  Obtaining occupation numbers and chemical potential using ELSI.
  | Chemical potential (Fermi level):    -3.02566499eV
  Highest occupied state (VBM) at    -11.64205899 eV
  | Occupation number:      2.00000000

  Lowest unoccupied state (CBM) at     1.22013831 eV
  | Occupation number:      0.00000000

  Overall HOMO-LUMO gap:     12.86219730 eV.

  Total energy components:
  | Sum of eigenvalues            :          -0.85567561 Ha         -23.28411799 eV
  | XC energy correction          :          -0.77454447 Ha         -21.07642725 eV
  | XC potential correction       :           0.99403018 Ha          27.04893732 eV
  | Free-atom electrostatic energy:          -0.08387907 Ha          -2.28246551 eV
  | Hartree energy correction     :          -0.38774228 Ha         -10.55100419 eV
  | Entropy correction            :           0.00000000 Ha           0.00000000 eV
  | ---------------------------
  | Total energy                  :          -1.10781124 Ha         -30.14507761 eV
  | Total energy, T -> 0          :          -1.10781124 Ha         -30.14507761 eV  <-- do not rely on this value for anything but (periodic) metals
  | Electronic free energy        :          -1.10781124 Ha         -30.14507761 eV

  Derived energy quantities:
  | Kinetic energy                :           1.42166889 Ha          38.68557890 eV
  | Electrostatic energy          :          -1.75493567 Ha         -47.75422926 eV
  | Energy correction for multipole
  | error in Hartree potential    :           0.00001958 Ha           0.00053282 eV
  | Sum of eigenvalues per atom                           :         -11.64205899 eV
  | Total energy (T->0) per atom                          :         -15.07253881 eV  <-- do not rely on this value for anything but (periodic) metals
  | Electronic free energy per atom                       :         -15.07253881 eV

  Self-consistency convergence accuracy:
  | Change of charge density      :  0.5885E-03
  | Change of sum of eigenvalues  :  0.2716E-01 eV
  | Change of total energy        :  0.2400E-05 eV

  End self-consistency iteration #     5       :  max(cpu_time)    wall_clock(cpu1)
  | Time for this iteration                    :        0.052 s           0.055 s
  | Charge density update                      :        0.008 s           0.010 s
  | Density mixing                             :        0.004 s           0.001 s
  | Hartree multipole update                   :        0.004 s           0.005 s
  | Hartree multipole summation                :        0.008 s           0.010 s
  | Integration                                :        0.028 s           0.028 s
  | Solution of K.-S. eqns.                    :        0.004 s           0.001 s
  | Total energy evaluation                    :        0.000 s           0.000 s

  Partial memory accounting:
  | Current value for overall tracked memory usage on task 0  :           0.012 MB
  | Peak value for overall tracked memory usage on task 0     :           0.130 MB after allocating gradient_basis_wave
  | Largest tracked array allocation on task 0 so far         :           0.089 MB  when allocating gradient_basis_wave
  Note:  These values currently only include a subset of arrays which are explicitly tracked.
  The "true" memory usage will be greater.
------------------------------------------------------------

------------------------------------------------------------
          Begin self-consistency iteration #    6

  Date     :  20200517, Time     :  154433.568
------------------------------------------------------------
  Evaluating new KS density.
  Integration grid: deviation in total charge (<rho> - N_e) =  -2.220446E-15
  Pulay mixing of updated and previous charge densities.

  Evaluating partitioned Hartree potential by multipole expansion.
  | Analytical far-field extrapolation by fixed multipoles:
  | Hartree multipole sum: apparent total charge =   0.872733E-06
  Summing up the Hartree potential.
  Time summed over all CPUs for potential: real work        0.028 s, elapsed        0.048 s
  | RMS charge density error from multipole expansion :   0.197923E-02

  Integrating Hamiltonian matrix: batch-based integration.
  Time summed over all CPUs for integration: real work        0.049 s, elapsed        0.065 s => Consider using load balancing!

  Updating Kohn-Sham eigenvalues and eigenvectors using ELSI and the ELPA eigensolver.
  ELPA settings:
  | ELPA solver          1
  Finished transformation to standard eigenproblem
  | Time :     0.000 s
  Starting ELPA eigensolver
  | Time full => tridiagonal    :     0.000 s
  | Time solve tridiagonal      :     0.000 s
  | Time ev tridiagonal => full :     0.000 s
  Finished solving standard eigenproblem
  | Time :     0.000 s
  Finished back-transformation of eigenvectors
  | Time :     0.000 s

  Obtaining occupation numbers and chemical potential using ELSI.
  | Chemical potential (Fermi level):    -3.03544516eV
  Highest occupied state (VBM) at    -11.64786771 eV
  | Occupation number:      2.00000000

  Lowest unoccupied state (CBM) at     1.21161935 eV
  | Occupation number:      0.00000000

  Overall HOMO-LUMO gap:     12.85948706 eV.

  Total energy components:
  | Sum of eigenvalues            :          -0.85610254 Ha         -23.29573543 eV
  | XC energy correction          :          -0.77431497 Ha         -21.07018243 eV
  | XC potential correction       :           0.99373255 Ha          27.04083859 eV
  | Free-atom electrostatic energy:          -0.08387907 Ha          -2.28246551 eV
  | Hartree energy correction     :          -0.38724715 Ha         -10.53753115 eV
  | Entropy correction            :           0.00000000 Ha           0.00000000 eV
  | ---------------------------
  | Total energy                  :          -1.10781118 Ha         -30.14507594 eV
  | Total energy, T -> 0          :          -1.10781118 Ha         -30.14507594 eV  <-- do not rely on this value for anything but (periodic) metals
  | Electronic free energy        :          -1.10781118 Ha         -30.14507594 eV

  Derived energy quantities:
  | Kinetic energy                :           1.42098404 Ha          38.66694312 eV
  | Electrostatic energy          :          -1.75448025 Ha         -47.74183662 eV
  | Energy correction for multipole
  | error in Hartree potential    :           0.00001951 Ha           0.00053097 eV
  | Sum of eigenvalues per atom                           :         -11.64786771 eV
  | Total energy (T->0) per atom                          :         -15.07253797 eV  <-- do not rely on this value for anything but (periodic) metals
  | Electronic free energy per atom                       :         -15.07253797 eV

  Self-consistency convergence accuracy:
  | Change of charge density      :  0.2710E-03
  | Change of sum of eigenvalues  : -0.1162E-01 eV
  | Change of total energy        :  0.1675E-05 eV

  End self-consistency iteration #     6       :  max(cpu_time)    wall_clock(cpu1)
  | Time for this iteration                    :        0.048 s           0.048 s
  | Charge density update                      :        0.016 s           0.015 s
  | Density mixing                             :        0.004 s           0.001 s
  | Hartree multipole update                   :        0.004 s           0.001 s
  | Hartree multipole summation                :        0.012 s           0.013 s
  | Integration                                :        0.016 s           0.017 s
  | Solution of K.-S. eqns.                    :        0.000 s           0.001 s
  | Total energy evaluation                    :        0.000 s           0.000 s

  Partial memory accounting:
  | Current value for overall tracked memory usage on task 0  :           0.012 MB
  | Peak value for overall tracked memory usage on task 0     :           0.130 MB after allocating gradient_basis_wave
  | Largest tracked array allocation on task 0 so far         :           0.089 MB  when allocating gradient_basis_wave
  Note:  These values currently only include a subset of arrays which are explicitly tracked.
  The "true" memory usage will be greater.
------------------------------------------------------------

------------------------------------------------------------
          Begin self-consistency iteration #    7

  Date     :  20200517, Time     :  154433.616
------------------------------------------------------------
  Evaluating new KS density.
  Integration grid: deviation in total charge (<rho> - N_e) =  -5.773160E-15
  Pulay mixing of updated and previous charge densities.

  Evaluating partitioned Hartree potential by multipole expansion.
  | Analytical far-field extrapolation by fixed multipoles:
  | Hartree multipole sum: apparent total charge =   0.872707E-06
  Summing up the Hartree potential.
  Time summed over all CPUs for potential: real work        0.021 s, elapsed        0.021 s
  | RMS charge density error from multipole expansion :   0.197921E-02

  Integrating Hamiltonian matrix: batch-based integration.
  Time summed over all CPUs for integration: real work        0.059 s, elapsed        0.110 s => Consider using load balancing!

  Updating Kohn-Sham eigenvalues and eigenvectors using ELSI and the ELPA eigensolver.
  ELPA settings:
  | ELPA solver          1
  Finished transformation to standard eigenproblem
  | Time :     0.000 s
  Starting ELPA eigensolver
  | Time full => tridiagonal    :     0.000 s
  | Time solve tridiagonal      :     0.000 s
  | Time ev tridiagonal => full :     0.000 s
  Finished solving standard eigenproblem
  | Time :     0.000 s
  Finished back-transformation of eigenvectors
  | Time :     0.000 s

  Obtaining occupation numbers and chemical potential using ELSI.
  | Chemical potential (Fermi level):    -3.03553210eV
  Highest occupied state (VBM) at    -11.64792078 eV
  | Occupation number:      2.00000000

  Lowest unoccupied state (CBM) at     1.21155179 eV
  | Occupation number:      0.00000000

  Overall HOMO-LUMO gap:     12.85947257 eV.

  Total energy components:
  | Sum of eigenvalues            :          -0.85610644 Ha         -23.29584157 eV
  | XC energy correction          :          -0.77431284 Ha         -21.07012451 eV
  | XC potential correction       :           0.99372980 Ha          27.04076371 eV
  | Free-atom electrostatic energy:          -0.08387907 Ha          -2.28246551 eV
  | Hartree energy correction     :          -0.38724263 Ha         -10.53740806 eV
  | Entropy correction            :           0.00000000 Ha           0.00000000 eV
  | ---------------------------
  | Total energy                  :          -1.10781118 Ha         -30.14507593 eV
  | Total energy, T -> 0          :          -1.10781118 Ha         -30.14507593 eV  <-- do not rely on this value for anything but (periodic) metals
  | Electronic free energy        :          -1.10781118 Ha         -30.14507593 eV

  Derived energy quantities:
  | Kinetic energy                :           1.42097731 Ha          38.66675997 eV
  | Electrostatic energy          :          -1.75447565 Ha         -47.74171140 eV
  | Energy correction for multipole
  | error in Hartree potential    :           0.00001951 Ha           0.00053096 eV
  | Sum of eigenvalues per atom                           :         -11.64792078 eV
  | Total energy (T->0) per atom                          :         -15.07253797 eV  <-- do not rely on this value for anything but (periodic) metals
  | Electronic free energy per atom                       :         -15.07253797 eV

  Self-consistency convergence accuracy:
  | Change of charge density      :  0.2556E-05
  | Change of sum of eigenvalues  : -0.1061E-03 eV
  | Change of total energy        :  0.6180E-09 eV

  End self-consistency iteration #     7       :  max(cpu_time)    wall_clock(cpu1)
  | Time for this iteration                    :        0.048 s           0.050 s
  | Charge density update                      :        0.012 s           0.011 s
  | Density mixing                             :        0.000 s           0.002 s
  | Hartree multipole update                   :        0.004 s           0.001 s
  | Hartree multipole summation                :        0.008 s           0.006 s
  | Integration                                :        0.028 s           0.028 s
  | Solution of K.-S. eqns.                    :        0.004 s           0.001 s
  | Total energy evaluation                    :        0.000 s           0.001 s

  Partial memory accounting:
  | Current value for overall tracked memory usage on task 0  :           0.012 MB
  | Peak value for overall tracked memory usage on task 0     :           0.130 MB after allocating gradient_basis_wave
  | Largest tracked array allocation on task 0 so far         :           0.089 MB  when allocating gradient_basis_wave
  Note:  These values currently only include a subset of arrays which are explicitly tracked.
  The "true" memory usage will be greater.
------------------------------------------------------------

------------------------------------------------------------
          Begin self-consistency iteration #    8

  Date     :  20200517, Time     :  154433.666
------------------------------------------------------------
  Evaluating new KS density.
  Integration grid: deviation in total charge (<rho> - N_e) =  -1.332268E-15
  Pulay mixing of updated and previous charge densities.

  Evaluating partitioned Hartree potential by multipole expansion.
  | Analytical far-field extrapolation by fixed multipoles:
  | Hartree multipole sum: apparent total charge =   0.872766E-06
  Summing up the Hartree potential.
  Time summed over all CPUs for potential: real work        0.032 s, elapsed        0.064 s
  | RMS charge density error from multipole expansion :   0.197921E-02

  Integrating Hamiltonian matrix: batch-based integration.
  Time summed over all CPUs for integration: real work        0.043 s, elapsed        0.046 s

  Updating Kohn-Sham eigenvalues and eigenvectors using ELSI and the ELPA eigensolver.
  ELPA settings:
  | ELPA solver          1
  Finished transformation to standard eigenproblem
  | Time :     0.000 s
  Starting ELPA eigensolver
  | Time full => tridiagonal    :     0.000 s
  | Time solve tridiagonal      :     0.000 s
  | Time ev tridiagonal => full :     0.000 s
  Finished solving standard eigenproblem
  | Time :     0.001 s
  Finished back-transformation of eigenvectors
  | Time :     0.000 s

  Obtaining occupation numbers and chemical potential using ELSI.
  | Chemical potential (Fermi level):    -3.03542347eV
  Highest occupied state (VBM) at    -11.64790967 eV
  | Occupation number:      2.00000000

  Lowest unoccupied state (CBM) at     1.21164090 eV
  | Occupation number:      0.00000000

  Overall HOMO-LUMO gap:     12.85955056 eV.

  Total energy components:
  | Sum of eigenvalues            :          -0.85610562 Ha         -23.29581933 eV
  | XC energy correction          :          -0.77431328 Ha         -21.07013644 eV
  | XC potential correction       :           0.99373039 Ha          27.04077976 eV
  | Free-atom electrostatic energy:          -0.08387907 Ha          -2.28246551 eV
  | Hartree energy correction     :          -0.38724360 Ha         -10.53743442 eV
  | Entropy correction            :           0.00000000 Ha           0.00000000 eV
  | ---------------------------
  | Total energy                  :          -1.10781118 Ha         -30.14507593 eV
  | Total energy, T -> 0          :          -1.10781118 Ha         -30.14507593 eV  <-- do not rely on this value for anything but (periodic) metals
  | Electronic free energy        :          -1.10781118 Ha         -30.14507593 eV

  Derived energy quantities:
  | Kinetic energy                :           1.42097806 Ha          38.66678031 eV
  | Electrostatic energy          :          -1.75447596 Ha         -47.74171981 eV
  | Energy correction for multipole
  | error in Hartree potential    :           0.00001951 Ha           0.00053099 eV
  | Sum of eigenvalues per atom                           :         -11.64790967 eV
  | Total energy (T->0) per atom                          :         -15.07253797 eV  <-- do not rely on this value for anything but (periodic) metals
  | Electronic free energy per atom                       :         -15.07253797 eV

  Self-consistency convergence accuracy:
  | Change of charge density      :  0.6358E-06
  | Change of sum of eigenvalues  :  0.2224E-04 eV
  | Change of total energy        :  0.1635E-09 eV

  Writing Kohn-Sham eigenvalues.

  State    Occupation    Eigenvalue [Ha]    Eigenvalue [eV]
      1       2.00000          -0.428053          -11.64791
      2       0.00000           0.044527            1.21164
      3       0.00000           0.045821            1.24685
      4       0.00000           0.204953            5.57706

  Highest occupied state (VBM) at    -11.64790967 eV
  | Occupation number:      2.00000000

  Lowest unoccupied state (CBM) at     1.21164090 eV
  | Occupation number:      0.00000000

  Overall HOMO-LUMO gap:     12.85955056 eV.

  Self-consistency cycle converged.

  End self-consistency iteration #     8       :  max(cpu_time)    wall_clock(cpu1)
  | Time for this iteration                    :        0.040 s           0.040 s
  | Charge density update                      :        0.008 s           0.007 s
  | Density mixing                             :        0.000 s           0.001 s
  | Hartree multipole update                   :        0.004 s           0.001 s
  | Hartree multipole summation                :        0.016 s           0.017 s
  | Integration                                :        0.012 s           0.012 s
  | Solution of K.-S. eqns.                    :        0.004 s           0.001 s
  | Total energy evaluation                    :        0.000 s           0.001 s

  Partial memory accounting:
  | Current value for overall tracked memory usage on task 0  :           0.012 MB
  | Peak value for overall tracked memory usage on task 0     :           0.130 MB after allocating gradient_basis_wave
  | Largest tracked array allocation on task 0 so far         :           0.089 MB  when allocating gradient_basis_wave
  Note:  These values currently only include a subset of arrays which are explicitly tracked.
  The "true" memory usage will be greater.
------------------------------------------------------------
  |------------------------------------------
  | Final ELSI Output
  |------------------------------------------
  | Number of basis functions :           30
  | Number of electrons       :          2.0
  | Number of spins           :            1
  | Number of k-points        :            1
  | Number of states          :            4
  | Solver                    :         ELPA
  | Parallel mode             :   MULTI_PROC
  | Matrix format             :  BLACS_DENSE
  | Matrix sparsity           :        0.107
  |------------------------------------------
  | ELSI Project (c)  elsi-interchange.org
  |------------------------------------------
  Obtaining max. number of non-zero basis functions in each batch .
  Evaluating KS electron density on previously omitted grid points.
  Performing Hirshfeld analysis of fragment charges and moments.
  ----------------------------------------------------------------------
  | Atom     1: H
  |   Hirshfeld charge        :     -0.00000293
  |   Free atom volume        :     10.31539447
  |   Hirshfeld volume        :      4.19924433
  |   Hirshfeld dipole vector :     -0.03857273      -0.03857273      -0.03857273
  |   Hirshfeld dipole moment :      0.06680993
  |   Hirshfeld second moments:      0.15334766      -0.00140822      -0.00140822
  |                                 -0.00140822       0.15334766      -0.00140822
  |                                 -0.00140822      -0.00140822       0.15334766
  ----------------------------------------------------------------------
  | Atom     2: H
  |   Hirshfeld charge        :     -0.00000293
  |   Free atom volume        :     10.31539447
  |   Hirshfeld volume        :      4.19924433
  |   Hirshfeld dipole vector :      0.03857273       0.03857273       0.03857273
  |   Hirshfeld dipole moment :      0.06680993
  |   Hirshfeld second moments:      0.15334766      -0.00140822      -0.00140822
  |                                 -0.00140822       0.15334766      -0.00140822
  |                                 -0.00140822      -0.00140822       0.15334766
  ----------------------------------------------------------------------

  | Many-Body Dispersion (MBD@rsSCS) energy
  | Total dynamic anisotropic polarizability, \alpha_{ij}(iu), (a.u.)
  | -------------------------------------------------------------------
  |      u            xx         yy         zz         yz         xz         xy
  |   0.000000      2.611      2.611      2.611      0.367      0.367      0.367
  |   0.003624      2.610      2.610      2.610      0.367      0.367      0.367
  |   0.019427      2.606      2.606      2.606      0.367      0.367      0.367
  |   0.049278      2.583      2.583      2.583      0.366      0.366      0.366
  |   0.095887      2.510      2.510      2.510      0.362      0.362      0.362
  |   0.163858      2.341      2.341      2.341      0.354      0.354      0.354
  |   0.260739      2.034      2.034      2.034      0.336      0.336      0.336
  |   0.399006      1.601      1.601      1.601      0.304      0.304      0.304
  |   0.600000      1.119      1.119      1.119      0.244      0.244      0.244
  |   0.902242      0.672      0.672      0.672      0.149      0.149      0.149
  |   1.380693      0.330      0.330      0.330      0.053      0.053      0.053
  |   2.197021      0.135      0.135      0.135      0.010      0.010      0.010
  |   3.754417      0.047      0.047      0.047      0.001      0.001      0.001
  |   7.305481      0.013      0.013      0.013      0.000      0.000      0.000
  |  18.530638      0.002      0.002      0.002      0.000      0.000      0.000
  |  99.337689      0.000      0.000      0.000      0.000      0.000      0.000
  | --------------------------------------------------------------
  | Partitioned atomic C6 coefficients and polarizabilities (a.u.)
  | --------------------------------------------------------------
  | ATOM   1  H    0.651446          1.305266
  | ATOM   2  H    0.651446          1.305266
  | --------------------------------------------------------------
  | Computing MBD@rsSCS energy...
  | --------------------------------------------------------------

  Total energy components:
  | Sum of eigenvalues            :          -0.85610562 Ha         -23.29581933 eV
  | XC energy correction          :          -0.77431328 Ha         -21.07013644 eV
  | XC potential correction       :           0.99373039 Ha          27.04077976 eV
  | Free-atom electrostatic energy:          -0.08387907 Ha          -2.28246551 eV
  | Hartree energy correction     :          -0.38724360 Ha         -10.53743442 eV
  | MBD@rsSCS energy              :          -0.00013811 Ha          -0.00375813 eV
  | Entropy correction            :           0.00000000 Ha           0.00000000 eV
  | ---------------------------
  | Total energy                  :          -1.10794929 Ha         -30.14883407 eV
  | Total energy, T -> 0          :          -1.10794929 Ha         -30.14883407 eV  <-- do not rely on this value for anything but (periodic) metals
  | Electronic free energy        :          -1.10794929 Ha         -30.14883407 eV

  Derived energy quantities:
  | Kinetic energy                :           1.42097806 Ha          38.66678031 eV
  | Electrostatic energy          :          -1.75447596 Ha         -47.74171981 eV
  | Energy correction for multipole
  | error in Hartree potential    :           0.00001951 Ha           0.00053099 eV
  | Sum of eigenvalues per atom                           :         -11.64790967 eV
  | Total energy (T->0) per atom                          :         -15.07441703 eV  <-- do not rely on this value for anything but (periodic) metals
  | Electronic free energy per atom                       :         -15.07441703 eV
  Timings for VdW correction (Tkatchenko-Scheffler 2009 or later):
  | CPU time:        0.032 s, Wall clock time:        0.029 s.
  ------------------------------------------------------------
   Computing monopole / dipole moments for complete molecule:
  | Total electronic charge [e]         :          0.200000000000001E+01
  | Total ionic charge [e]              :          0.200000000000000E+01
  | Total charge [e]                    :         -0.888178419700125E-14
  | Total dipole moment [eAng]          :          0.141001133435736E-14         0.763756139443572E-14         0.528754250384011E-14
  | Absolute dipole moment              :          0.939566824375504E-14 eAng              /                   0.451222845364432E-13 Debye  .

  Energy and forces in a compact form:
  | Total energy uncorrected      :         -0.301488340683907E+02 eV
  | Total energy corrected        :         -0.301488340683907E+02 eV  <-- do not rely on this value for anything but (periodic) metals
  | Electronic free energy        :         -0.301488340683907E+02 eV

  ------------------------------------ 
  Start decomposition of the XC Energy 
  ------------------------------------ 
  X and C from original XC functional choice 
  Hartree-Fock Energy :          0.000000000 Ha              0.000000000 eV
  X Energy            :         -0.730596708 Ha            -19.880547947 eV
  C Energy            :         -0.043716573 Ha             -1.189588490 eV
  Total XC Energy     :         -0.774313282 Ha            -21.070136438 eV
  ------------------------------------ 
  LDA X and C from self-consistent density 
  X Energy LDA        :         -0.639735319 Ha            -17.408083754 eV
  C Energy LDA        :         -0.099235661 Ha             -2.700339715 eV
  ------------------------------------ 
  End decomposition of the XC Energy 
  ------------------------------------ 

------------------------------------------------------------

------------------------------------------------------------------------------
  Final output of selected total energy values:

  The following output summarizes some interesting total energy values
  at the end of a run (AFTER all relaxation, molecular dynamics, etc.).

  | Total energy of the DFT / Hartree-Fock s.c.f. calculation      :            -30.148834068 eV
  | Final zero-broadening corrected energy (caution - metals only) :            -30.148834068 eV
  | For reference only, the value of 1 Hartree used in FHI-aims is :             27.211384500 eV

  Before relying on these values, please be sure to understand exactly which
  total energy value is referred to by a given number. Different objects may
  all carry the same name 'total energy'. Definitions:

  Total energy of the DFT / Hartree-Fock s.c.f. calculation:
  | Note that this energy does not include ANY quantities calculated after the
  | s.c.f. cycle, in particular not ANY RPA, MP2, etc. many-body perturbation terms.

  Final zero-broadening corrected energy:
  | For metallic systems only, a broadening of the occupation numbers at the Fermi
  | level can be extrapolated back to zero broadening by an electron-gas inspired
  | formula. For all systems that are not real metals, this value can be
  | meaningless and should be avoided.

------------------------------------------------------------------------------
  Methods described in the following list of references were used in this FHI-aims run.
  If you publish the results, please make sure to cite these reference if they apply.
  FHI-aims is an academic code, and for our developers (often, Ph.D. students
  and postdocs), scientific credit in the community is essential.
  Thank you for helping us!

  For any use of FHI-aims, please cite:

    Volker Blum, Ralf Gehrke, Felix Hanke, Paula Havu, Ville Havu,
    Xinguo Ren, Karsten Reuter, and Matthias Scheffler
    'Ab initio molecular simulations with numeric atom-centered orbitals'
    Computer Physics Communications 180, 2175-2196 (2009)
    http://dx.doi.org/10.1016/j.cpc.2009.06.022


  The scalable eigensolver library ELPA was used in your run.
  ELPA is essential especially for large systems on hundreds or thousands of CPUs.
  For ELPA, please cite:

    Andreas Marek, Volker Blum, Rainer Johanni, Ville Havu, Bruno Lang,
    Thomas Auckenthaler, Alexander Heinecke, Hans-Joachim Bungartz, and Hermann Lederer,
    'The ELPA Library - Scalable Parallel Eigenvalue Solutions
    for Electronic Structure Theory and Computational Science'
    The Journal of Physics: Condensed Matter 26, 213201 (2014).
    http://dx.doi.org/10.1088/0953-8984/26/21/213201


  The ELSI infrastructure was used in your run to solve the Kohn-Sham electronic structure.
  Please check out http://elsi-interchange.org to learn more.
  If scalability is important for your project, please acknowledge ELSI by citing:

    V. W-z. Yu, F. Corsetti, A. Garcia, W. P. Huhn, M. Jacquelin, W. Jia,
    B. Lange, L. Lin, J. Lu, W. Mi, A. Seifitokaldani, A. Vazquez-Mayagoitia,
    C. Yang, H. Yang, and V. Blum
    'ELSI: A unified software interface for Kohn-Sham electronic structure solvers'
    Computer Physics Communications 222, 267-285 (2018).
    http://dx.doi.org/10.1016/j.cpc.2017.09.007


  For the real-space grid partitioning and parallelization used in this calculation, please cite:

    Ville Havu, Volker Blum, Paula Havu, and Matthias Scheffler,
    'Efficient O(N) integration for all-electron electronic structure calculation'
    'using numerically tabulated basis functions'
    Journal of Computational Physics 228, 8367-8379 (2009).
    http://dx.doi.org/10.1016/j.jcp.2009.08.008

  Of course, there are many other important community references, e.g., those cited in the
  above references. Our list is limited to references that describe implementations in the
  FHI-aims code. The reason is purely practical (length of this list) - please credit others as well.

------------------------------------------------------------
          Leaving FHI-aims.
          Date     :  20200517, Time     :  154433.743

          Computational steps:
          | Number of self-consistency cycles          :            8
          | Number of SCF (re)initializations          :            1

          Detailed time accounting                     :  max(cpu_time)    wall_clock(cpu1)
          | Total time                                 :        0.616 s           0.633 s
          | Preparation time                           :        0.092 s           0.093 s
          | Boundary condition initalization           :        0.000 s           0.000 s
          | Grid partitioning                          :        0.012 s           0.010 s
          | Preloading free-atom quantities on grid    :        0.008 s           0.008 s
          | Free-atom superposition energy             :        0.004 s           0.004 s
          | Total time for integrations                :        0.192 s           0.185 s
          | Total time for solution of K.-S. equations :        0.028 s           0.016 s
          | Total time for density update              :        0.108 s           0.096 s
          | Total time for mixing                      :        0.016 s           0.008 s
          | Total time for Hartree multipole update    :        0.032 s           0.017 s
          | Total time for Hartree multipole sum       :        0.096 s           0.095 s
          | Total time for total energy evaluation     :        0.000 s           0.006 s
          | Total time for scaled ZORA corrections     :        0.000 s           0.000 s
          | Total time for vdW correction              :        0.032 s           0.029 s

          Partial memory accounting:
          | Residual value for overall tracked memory usage across tasks :           0.000 MB (should be 0.000 MB)
          | Peak values for overall tracked memory usage (after allocating gradient_basis_wave):
          |   Minimum:        0.129 MB (on task 4)
          |   Maximum:        0.130 MB (on task 1)
          |   Average:        0.129 MB
          | Largest tracked array allocation (gradient_basis_wave):
          |   Minimum:        0.089 MB (on task 1)
          |   Maximum:        0.089 MB (on task 1)
          |   Average:        0.089 MB
          Note:  These values currently only include a subset of arrays which are explicitly tracked.
          The "true" memory usage will be greater.

          Have a nice day.
------------------------------------------------------------
