  MPI-parallelism will be employed.
------------------------------------------------------------
          Invoking FHI-aims ...
          Version 171221_1
          Compiled on 2019/08/20 at 16:40:07 on host core401.

          When using FHI-aims, please cite the following reference:

          Volker Blum, Ralf Gehrke, Felix Hanke, Paula Havu,
          Ville Havu, Xinguo Ren, Karsten Reuter, and Matthias Scheffler,
          'Ab Initio Molecular Simulations with Numeric Atom-Centered Orbitals',
          Computer Physics Communications 180, 2175-2196 (2009)

          For any questions about FHI-aims, please visit the aimsclub website
          with its forums and wiki. Contributions to both the forums and the
          wiki are warmly encouraged - they are for you, and everyone is welcome there.

------------------------------------------------------------



  Date     :  20200519, Time     :  220452.542
  Time zero on CPU 1             :   0.240000000000000E-01  s.
  Internal wall clock time zero  :           359157892.542  s.

  FHI-aims created a unique identifier for this run for later identification
  aims_uuid : 30B6643C-5494-4501-A571-71F6F96B1D1D

  Using        4 parallel tasks.
  Task        0 on host core401 reporting.
  Task        1 on host core401 reporting.
  Task        2 on host core401 reporting.
  Task        3 on host core401 reporting.

  Performing system and environment tests:
  *** Environment variable OMP_NUM_THREADS is not set
  *** For performance reasons you might want to set it to 1
  | Maximum stacksize for task 0: unlimited
  | Maximum stacksize for task 1: unlimited
  | Maximum stacksize for task 2: unlimited
  | Maximum stacksize for task 3: unlimited
  | Current stacksize for task 0: unlimited
  | Current stacksize for task 1: unlimited
  | Current stacksize for task 2: unlimited
  | Current stacksize for task 3: unlimited
  | Checking for scalapack...
  | Testing pdtran()...
  | All pdtran() tests passed.

  Obtaining array dimensions for all initial allocations:
  
  -----------------------------------------------------------------------
  Parsing control.in (first pass over file, find array dimensions only).
  The contents of control.in will be repeated verbatim below
  unless switched off by setting 'verbatim_writeout .false.' .
  in the first line of control.in .
  -----------------------------------------------------------------------
  
  #########################################################################################
  #
  #   input file control.in tight for scaling studies
  #
  #########################################################################################
  #
  #  Physical model
  #
    xc                 pbe
  #  vdw_correction_hirshfeld
    many_body_dispersion vacuum=.true.:.true.:.true.
    spin               none
    relativistic       atomic_zora scalar
    charge             0.
  #  k_grid 1 1 1
  #
  #  SCF convergence
  #
    occupation_type    gaussian 0.1
    mixer              pulay
      n_max_pulay        5
      charge_mix_param   0.3
      sc_iter_limit      100
  #
    output             dipole
  #  collect_eigenvectors .false.
  #  use_local_index .false.
  #  use_alltoall .false.
  #  elpa_settings two_step_solver
  #  output elpa_timings
  #
  ################################################################################
  #
  #  FHI-aims code project
  #  VB, Fritz-Haber Institut, 2009
  #
  #  Suggested "tight" defaults for C atom (to be pasted into control.in file)
  #
  ################################################################################
    species        C
  #     global species definitions
      nucleus             6
      mass                12.0107
  #
      l_hartree           6
  #
      cut_pot             4.0  2.0  1.0
      basis_dep_cutoff    1e-4
  #
      radial_base         34 7.0
      radial_multiplier   2
      angular_grids specified
        division   0.2187   50
        division   0.4416  110
        division   0.6335  194
        division   0.7727  302
        division   0.8772  434
  #      division   0.9334  590
  #      division   0.9924  770
  #      division   1.0230  974
  #      division   1.5020 1202
  #     outer_grid  974
        outer_grid  434
  ################################################################################
  #
  #  Definition of "minimal" basis
  #
  ################################################################################
  #     valence basis states
      valence      2  s   2.
      valence      2  p   2.
  #     ion occupancy
      ion_occ      2  s   1.
      ion_occ      2  p   1.
  ################################################################################
  #
  #  Suggested additional basis functions. For production calculations,
  #  uncomment them one after another (the most important basis functions are
  #  listed first).
  #
  #  Constructed for dimers: 1.0 A, 1.25 A, 1.5 A, 2.0 A, 3.0 A
  #
  ################################################################################
  #  "First tier" - improvements: -1214.57 meV to -155.61 meV
       hydro 2 p 1.7
       hydro 3 d 6
       hydro 2 s 4.9
  #  "Second tier" - improvements: -67.75 meV to -5.23 meV
       hydro 4 f 9.8
       hydro 3 p 5.2
       hydro 3 s 4.3
       hydro 5 g 14.4
       hydro 3 d 6.2
  #  "Third tier" - improvements: -2.43 meV to -0.60 meV
  #     hydro 2 p 5.6
  #     hydro 2 s 1.4
  #     hydro 3 d 4.9
  #     hydro 4 f 11.2
  #  "Fourth tier" - improvements: -0.39 meV to -0.18 meV
  #     hydro 2 p 2.1
  #     hydro 5 g 16.4
  #     hydro 4 d 13.2
  #     hydro 3 s 13.6
  #     hydro 4 f 17.6
  #  Further basis functions - improvements: -0.08 meV and below
  #     hydro 3 s 2
  #     hydro 3 p 6
  #     hydro 4 d 20
  
  ################################################################################
  #
  #  FHI-aims code project
  #  VB, Fritz-Haber Institut, 2009
  #
  #  Suggested "tight" defaults for H atom (to be pasted into control.in file)
  #
  ################################################################################
    species        H
  #     global species definitions
      nucleus             1
      mass                1.00794
  #
      l_hartree           6
  #
      cut_pot             4.0  2.0  1.0
      basis_dep_cutoff    1e-4
  #
      radial_base         24 7.0
      radial_multiplier   2
      angular_grids       specified
        division   0.1930   50
        division   0.3175  110
        division   0.4293  194
        division   0.5066  302
        division   0.5626  434
  #      division   0.5922  590
  #      division   0.6227  974
  #      division   0.6868 1202
  #      outer_grid  770
        outer_grid  434
  ################################################################################
  #
  #  Definition of "minimal" basis
  #
  ################################################################################
  #     valence basis states
      valence      1  s   1.
  #     ion occupancy
      ion_occ      1  s   0.5
  ################################################################################
  #
  #  Suggested additional basis functions. For production calculations,
  #  uncomment them one after another (the most important basis functions are
  #  listed first).
  #
  #  Basis constructed for dimers: 0.5 A, 0.7 A, 1.0 A, 1.5 A, 2.5 A
  #
  ################################################################################
  #  "First tier" - improvements: -1014.90 meV to -62.69 meV
       hydro 2 s 2.1
       hydro 2 p 3.5
  #  "Second tier" - improvements: -12.89 meV to -1.83 meV
       hydro 1 s 0.85
       hydro 2 p 3.7
       hydro 2 s 1.2
       hydro 3 d 7
  #  "Third tier" - improvements: -0.25 meV to -0.12 meV
  #     hydro 4 f 11.2
  #     hydro 3 p 4.8
  #     hydro 4 d 9
  #     hydro 3 s 3.2
  ################################################################################
  #
  #  FHI-aims code project
  #  Volker Blum, Fritz Haber Institute Berlin, 2009
  #
  #  Suggested "tight" defaults for Si atom (to be pasted into control.in file)
  #
  #  Revised Jan 04, 2011, following tests (SiC) done by Lydia Nemec:
  #     d and g functions of tier 2 now enabled by default.
  #
  ################################################################################
  #  species        Si
  #     global species definitions
  #    nucleus             14
  #    mass                28.0855
  #
  #    l_hartree           6
  #
  #    cut_pot             4.0          2.0  1.0
  #    basis_dep_cutoff    1e-4
  #
  #    radial_base         42 7.0
  #    radial_multiplier   2
  #    angular_grids       specified
  #      division   0.4121   50
  #      division   0.7665  110
  #      division   1.0603  194
  #      division   1.2846  302
  #      division   1.4125  434
  #      division   1.4810  590
  #      division   1.5529  770
  #      division   1.6284  974
  #      division   2.6016 1202
  #      outer_grid   974
  #      outer_grid  434
  ################################################################################
  #
  #  Definition of "minimal" basis
  #
  ################################################################################
  #     valence basis states
  #    valence      3  s   2.
  #    valence      3  p   2.
  #     ion occupancy
  #    ion_occ      3  s   1.
  #    ion_occ      3  p   1.
  ################################################################################
  #
  #  Suggested additional basis functions. For production calculations,
  #  uncomment them one after another (the most important basis functions are
  #  listed first).
  #
  #  Constructed for dimers: 1.75 A, 2.0 A, 2.25 A, 2.75 A, 3.75 A
  #
  ################################################################################
  #  "First tier" - improvements: -571.96 meV to -37.03 meV
  #     hydro 3 d 4.2
  #     hydro 2 p 1.4
  #     hydro 4 f 6.2
  #     ionic 3 s auto
  #  "Second tier" - improvements: -16.76 meV to -3.03 meV
  #     hydro 3 d 9
  #     hydro 5 g 9.4
  #     hydro 4 p 4
  #     hydro 1 s 0.65
  #  "Third tier" - improvements: -3.89 meV to -0.60 meV
  #     ionic 3 d auto
  #     hydro 3 s 2.6
  #     hydro 4 f 8.4
  #     hydro 3 d 3.4
  #     hydro 3 p 7.8
  #  "Fourth tier" - improvements: -0.33 meV to -0.11 meV
  #     hydro 2 p 1.6
  #     hydro 5 g 10.8
  #     hydro 5 f 11.2
  #     hydro 3 d 1
  #     hydro 4 s 4.5
  #  Further basis functions that fell out of the optimization - noise
  #  level... < -0.08 meV
  #     hydro 4 d 6.6
  #     hydro 5 g 16.4
  #     hydro 4 d 9
  
  
  
  -----------------------------------------------------------------------
  Completed first pass over input file control.in .
  -----------------------------------------------------------------------
  
  
  -----------------------------------------------------------------------
  Parsing geometry.in (first pass over file, find array dimensions only).
  The contents of geometry.in will be repeated verbatim below
  unless switched off by setting 'verbatim_writeout .false.' .
  in the first line of geometry.in .
  -----------------------------------------------------------------------
  
  atom -0.003450202 0.010170811 0.019380325 C
  atom -0.7954868 0.5766599 -0.5472012 H
  atom -0.39378393 -0.97992676 0.2722862 H
  atom 0.6344988 0.4473651 0.93568736 H
  atom 0.59581804 -0.16517928 -0.8915708 H
  
  -----------------------------------------------------------------------
  Completed first pass over input file geometry.in .
  -----------------------------------------------------------------------
  

  Basic array size parameters:
  | Number of species                 :        2
  | Number of atoms                   :        5
  | Max. basis fn. angular momentum   :        4
  | Max. atomic/ionic basis occupied n:        2
  | Max. number of basis fn. types    :        2
  | Max. radial fns per species/type  :        8
  | Max. logarithmic grid size        :     1277
  | Max. radial integration grid size :       69
  | Max. angular integration grid size:      434
  | Max. angular grid division number :        8
  | Radial grid for Hartree potential :     1277
  | Number of spin channels           :        1

------------------------------------------------------------
          Reading file control.in.
------------------------------------------------------------
  XC: Using PBE gradient-corrected functionals.
  Using the default MBD implementation with analytical forces
  Spin treatment: No spin polarisation.
  Scalar relativistic treatment of kinetic energy: on-site free-atom approximation to ZORA.
  Charge =   0.000000E+00: Neutral system requested explicitly.
  Occupation type: Gaussian broadening, width =   0.100000E+00 eV.
  Using pulay charge density mixing.
  Pulay mixing - number of memorized iterations:    5
  Charge density mixing - mixing parameter:     0.3000
  Maximum number of s.-c. iterations  :   100
  Dipole moment will be written out.
 
  Reading configuration options for species C                   .
  | Found nuclear charge :   6.0000
  | Found atomic mass :    12.0107000000000      amu
  | Found l_max for Hartree potential  :   6
  | Found cutoff potl. onset [A], width [A], scale factor :    4.00000    2.00000    1.00000
  | Threshold for basis-dependent cutoff potential is   0.100000E-03
  | Found data for basic radial integration grid :    34 points, outermost radius =    7.000 A
  | Found multiplier for basic radial grid :   2
  | Found angular grid specification: user-specified.
  | Specified grid contains     6 separate shells.
  | Check grid settings after all constraints further below.
  | Found free-atom valence shell :  2 s   2.000
  | Found free-atom valence shell :  2 p   2.000
  | No ionic wave fns used. Skipping ion_occ.
  | No ionic wave fns used. Skipping ion_occ.
  | Found hydrogenic basis function :  2 p   1.700
  | Found hydrogenic basis function :  3 d   6.000
  | Found hydrogenic basis function :  2 s   4.900
  | Found hydrogenic basis function :  4 f   9.800
  | Found hydrogenic basis function :  3 p   5.200
  | Found hydrogenic basis function :  3 s   4.300
  | Found hydrogenic basis function :  5 g  14.400
  | Found hydrogenic basis function :  3 d   6.200
  Species C                   : Missing cutoff potential type.
  Defaulting to exp(1/x)/(1-x)^2 type cutoff potential.
  Species C : No 'logarithmic' tag. Using default grid for free atom:
  | Default logarithmic grid data [bohr] : 0.1000E-03 0.1000E+03 0.1012E+01
  Species C : On-site basis accuracy parameter (for Gram-Schmidt orthonormalisation) not specified.
  Using default value basis_acc =  0.1000000E-03.
  Species C                   : Using default innermost maximum threshold i_radial=  2 for radial functions.
  Species C                   : Default cutoff onset for free atom density etc. : 0.40000000E+01 AA.
  Species C                   : Basic radial grid will be enhanced according to radial_multiplier =   2, to contain    69 grid points.
 
  Reading configuration options for species H                   .
  | Found nuclear charge :   1.0000
  | Found atomic mass :    1.00794000000000      amu
  | Found l_max for Hartree potential  :   6
  | Found cutoff potl. onset [A], width [A], scale factor :    4.00000    2.00000    1.00000
  | Threshold for basis-dependent cutoff potential is   0.100000E-03
  | Found data for basic radial integration grid :    24 points, outermost radius =    7.000 A
  | Found multiplier for basic radial grid :   2
  | Found angular grid specification: user-specified.
  | Specified grid contains     6 separate shells.
  | Check grid settings after all constraints further below.
  | Found free-atom valence shell :  1 s   1.000
  | No ionic wave fns used. Skipping ion_occ.
  | Found hydrogenic basis function :  2 s   2.100
  | Found hydrogenic basis function :  2 p   3.500
  | Found hydrogenic basis function :  1 s   0.850
  | Found hydrogenic basis function :  2 p   3.700
  | Found hydrogenic basis function :  2 s   1.200
  | Found hydrogenic basis function :  3 d   7.000
  Species H                   : Missing cutoff potential type.
  Defaulting to exp(1/x)/(1-x)^2 type cutoff potential.
  Species H : No 'logarithmic' tag. Using default grid for free atom:
  | Default logarithmic grid data [bohr] : 0.1000E-03 0.1000E+03 0.1012E+01
  Species H : On-site basis accuracy parameter (for Gram-Schmidt orthonormalisation) not specified.
  Using default value basis_acc =  0.1000000E-03.
  Species H                   : Using default innermost maximum threshold i_radial=  2 for radial functions.
  Species H                   : Default cutoff onset for free atom density etc. : 0.40000000E+01 AA.
  Species H                   : Basic radial grid will be enhanced according to radial_multiplier =   2, to contain    49 grid points.
 
  Finished reading input file 'control.in'. Consistency checks are next.
 
  MPI_IN_PLACE appears to work with this MPI implementation.
  | Keeping use_mpi_in_place .true. (see manual).
  Target number of points in a grid batch is not set. Defaulting to  100
  Method for grid partitioning is not set. Defaulting to parallel hash+maxmin partitioning.
  Batch size limit is not set. Defaulting to    200
  By default, will store active basis functions for each batch.
  If in need of memory, prune_basis_once .false. can be used to disable this option.
  communication_type for Hartree potential was not specified.
  Defaulting to calc_hartree .
  Pulay mixer: Number of initial linear mixing iterations not set.
  Defaulting to    0 iterations.
  Work space size for distributed Hartree potential not set.
  Defaulting to   0.200000E+03 MB.
  Algorithm-dependent basis array size parameters:
  | n_max_pulay                         :        5
 * Notice: The s.c.f. convergence criterion sc_accuracy_rho was not provided.
 * We used to stop in this case, and ask the user to provide reasonable
 * scf convergence criteria. However, this led some users to employ criteria
 * that led to extremely long run times, e.g., for simple relaxation.
 * We now preset a default value for sc_accuracy_rho if it is not set.
 * You may still wish to check if this setting is too tight or too loose for your needs.
 * Based on n_atoms, FHI-aims chose sc_accuracy_rho =  0.100000E-05 .
  Presetting      1001 iterations before the initial mixing cycle
  is restarted anyway using the sc_init_iter criterion / keyword.
  Presetting a factor      1.000 between actual scf density residual
  and density convergence criterion sc_accuracy_rho below which sc_init_iter
  takes no effect.
 * No s.c.f. convergence criteria (sc_accuracy_*) were provided in control.in.
 * The run will proceed with a reasonable default guess, but please check whether.
 * the s.c.f. cycles seem to take too much or too little time.
  Calculation of forces was not defined in control.in. No forces will be calculated.
  Geometry relaxation not requested: no relaxation will be performed.
  No accuracy limit for integral partition fn. given. Defaulting to  0.1000E-14.
  No threshold value for u(r) in integrations given. Defaulting to  0.1000E-05.
  No accuracy for occupation numbers given. Defaulting to  0.1000E-12.
  No threshold value for occupation numbers given. Defaulting to  0.0000E+00.
  No accuracy for fermi level given. Defaulting to  0.1000E-19.
  Maximum # of iterations to find E_F not set. Defaulting to  200.
  Preferred method for the eigenvalue solver ('KS_method') not specified in 'control.in'.
  Calling BLACS routine to test compilation state
  Since ScaLAPACK support is enabled, defaulting to 'elsi'.
  Will not use alltoall communication since running on < 1024 CPUs.
  Threshold for basis singularities not set.
  Default threshold for basis singularities:  0.1000E-04
  partition_type (choice of integration weights) for integrals was not specified.
  | Using a version of the partition function of Stratmann and coworkers ('stratmann_smoother').
  | At each grid point, the set of atoms used to build the partition table is smoothly restricted to
  | only those atoms whose free-atom density would be non-zero at that grid point.
  Partitioning for Hartree potential was not defined. Using partition_type for integrals.
  | Adjusted default value of keyword multip_moments_threshold to:       0.10000000E-11
  | This value may affect high angular momentum components of the Hartree potential in periodic systems.
  No q(lm)/r^(l+1) cutoff set for long-range Hartree potential.
  | Using default value of  0.100000E-09 .
  | Verify using the multipole_threshold keyword.
  Defaulting to new monopole extrapolation.
  Density update method: automatic selection selected.
------------------------------------------------------------


------------------------------------------------------------
          Reading geometry description geometry.in.
------------------------------------------------------------
  Input structure read successfully.
  The structure contains        5 atoms,  and a total of         10.000 electrons.

  Input geometry:
  | No unit cell requested.
  | Atomic structure:
  |       Atom                x [A]            y [A]            z [A]
  |    1: Species C            -0.00345020        0.01017081        0.01938033
  |    2: Species H            -0.79548680        0.57665990       -0.54720120
  |    3: Species H            -0.39378393       -0.97992676        0.27228620
  |    4: Species H             0.63449880        0.44736510        0.93568736
  |    5: Species H             0.59581804       -0.16517928       -0.89157080
  |

  | The smallest distance between any two atoms is         1.09389899 AA.
  |
  | The first atom of this pair is atom number                      1 .
  | The second atom of this pair is atom number                     3 .

  Number of empty states per atom not set in control.in - providing a guess from actual geometry.
  | Total number of empty states used during s.c.f. cycle:        9
  If you use a very high smearing, use empty_states (per atom!) in control.in to increase this value.

  Structure-dependent array size parameters: 
  | Maximum number of distinct radial functions  :       18
  | Maximum number of basis functions            :       99
  | Number of Kohn-Sham states (occupied + empty):       14
------------------------------------------------------------

------------------------------------------------------------
          Preparing all fixed parts of the calculation.
------------------------------------------------------------
  Determining machine precision:
    2.225073858507201E-308
  Setting up grids for atomic and cluster calculations.

  Creating wave function, potential, and density for free atoms.

  Species: C

  List of occupied orbitals and eigenvalues:
    n    l              occ      energy [Ha]    energy [eV]
    1    0           2.0000       -10.049212      -273.4530
    2    0           2.0000        -0.504761       -13.7352
    2    1           2.0000        -0.193631        -5.2690


  Species: H

  List of occupied orbitals and eigenvalues:
    n    l              occ      energy [Ha]    energy [eV]
    1    0           1.0000        -0.238386        -6.4868

  Creating fixed part of basis set: Ionic, confined, hydrogenic.
 
  C                    hydrogenic:
 
  List of hydrogenic basis orbitals: 
    n    l      effective z      eigenvalue [eV]  inner max. [A]     outer max. [A]     outer radius [A]   
    2    1         1.700000        -9.8152           1.245706           1.245706           5.401630
    3    2         6.000000       -54.4226           0.792453           0.792453           4.178599
    2    0         4.900000       -81.6681           0.082559           0.562749           3.353238
    4    3         9.800000       -81.6681           0.863254           0.863254           4.028125
    3    1         5.200000       -40.8774           0.305389           1.215618           4.898362
    3    0         4.300000       -27.9508           0.091041           1.610311           5.401630
    5    4        14.400000      -112.8510           0.917666           0.917666           3.883070
    3    2         6.200000       -58.1113           0.763917           0.763917           4.077671
 
 
  H                    hydrogenic:
 
  List of hydrogenic basis orbitals: 
    n    l      effective z      eigenvalue [eV]  inner max. [A]     outer max. [A]     outer radius [A]   
    2    0         2.100000       -14.9965           0.193243           1.317208           5.373006
    2    1         3.500000       -41.6672           0.602369           0.602369           4.056063
    1    0         0.850000        -9.8292           0.624871           0.624871           5.373006
    2    1         3.700000       -46.5653           0.573622           0.573622           3.910002
    2    0         1.200000        -4.5995           0.334980           2.228188           5.505995
    3    2         7.000000       -74.0753           0.680699           0.680699           3.769201
 

  Adding cutoff potential to free-atom effective potential.
  Creating atomic-like basis functions for current effective potential.

  Species C                   :

  List of atomic basis orbitals and eigenvalues:
    n    l      energy [Ha]    energy [eV]    outer radius [A]
    1    0       -10.049212      -273.4530       1.934409
    2    0        -0.504761       -13.7352       5.271162
    2    1        -0.193631        -5.2690       5.401630


  Species H                   :

  List of atomic basis orbitals and eigenvalues:
    n    l      energy [Ha]    energy [eV]    outer radius [A]
    1    0        -0.238386        -6.4868       5.373006

  Assembling full basis from fixed parts.
  | Species C :   atomic orbital   1 s accepted.
  | Species C :    hydro orbital   2 s accepted.
  | Species C :   atomic orbital   2 s accepted.
  | Species C :    hydro orbital   3 s accepted.
  | Species C :    hydro orbital   3 p accepted.
  | Species C :   atomic orbital   2 p accepted.
  | Species C :    hydro orbital   2 p accepted.
  | Species C :    hydro orbital   3 d accepted.
  | Species C :    hydro orbital   3 d accepted.
  | Species C :    hydro orbital   4 f accepted.
  | Species C :    hydro orbital   5 g accepted.
  | Species H :   atomic orbital   1 s accepted.
  | Species H :    hydro orbital   2 s accepted.
  | Species H :    hydro orbital   1 s accepted.
  | Species H :    hydro orbital   2 s accepted.
  | Species H :    hydro orbital   2 p accepted.
  | Species H :    hydro orbital   2 p accepted.
  | Species H :    hydro orbital   3 d accepted.
 
  Basis size parameters after reduction:
  | Total number of radial functions:       18
  | Total number of basis functions :       99
 
  Per-task memory consumption for arrays in subroutine allocate_ext:
  |           5.887940MB.
  Testing on-site integration grid accuracy.
  |  Species  Function  <phi|h_atom|phi> (log., in eV)  <phi|h_atom|phi> (rad., in eV)
           1        1               -273.4529725981               -273.4529710451
           1        2                -10.7721037329                -10.7721022102
           1        3                 17.6044132585                 17.6044162052
           1        4                 53.7706460564                 53.7706913681
           1        5                 15.0973290351                 15.0973256011
           1        6                  3.8545134677                  3.8545724657
           1        7                 12.1156992586                 12.1182024423
           1        8                 29.4352039288                 29.4352041805
           1        9                 54.8741144697                 54.8740268719
           1       10                 59.3556032036                 59.3556031370
           1       11                 93.4551837140                 93.4551837996
           2       12                 -6.4870767962                 -6.4871688290
           2       13                 13.5032046589                 13.5028982997
           2       14                 32.8195184817                 32.8119941656
           2       15                 33.8513856511                 33.7670005767 ***
           2       16                 28.8544614965                 28.8544615203
           2       17                 59.6326952547                 59.6327656460
           2       18                 60.2719308513                 60.2719305949
 * Note: Onsite integrals marked "***" above are less accurate than
 * onsite_accuracy_threshold =    0.03000 eV. Usually, this is harmless.
 * When in doubt, tighten the "radial" and/or "radial_multiplier" flags to check.

  Preparing densities etc. for the partition functions (integrals / Hartree potential).

  Preparations completed.
  max(cpu_time)          :      0.092 s.
  Wall clock time (cpu1) :      0.094 s.
------------------------------------------------------------

------------------------------------------------------------
          Begin self-consistency loop: Initialization.

          Date     :  20200519, Time     :  220452.781
------------------------------------------------------------

  Initializing index lists of integration centers etc. from given atomic structure:
  | Number of centers in hartree potential         :         5
  | Number of centers in hartree multipole         :         5
  | Number of centers in electron density summation:         5
  | Number of centers in basis integrals           :         5
  | Number of centers in integrals                 :         5
  | Number of centers in hamiltonian               :         5
  * Using 4 tasks for Scalapack Eigenvalue solver.
  Detailed listing of tasks and assigned k-points:
  (for non-periodic systems, the "k-point" denotes an internal label only)
   Task     0 k-point     1 on core401
   Task     1 k-point     1 on core401
   Task     2 k-point     1 on core401
   Task     3 k-point     1 on core401
  Tasks:     4 split into      2 X      2 BLACS grid
  Calculating block size based on n_basis =           99 max_nprow =            2 max_npcol =            2
  ScaLAPACK block size set to:           16
  Allocating        0.021 MB for ovlp
  Allocating        0.021 MB for ham
  Allocating        0.021 MB for eigenvec
  Required Scalapack workspace - INTEGER:            1 REAL:             1
  Partitioning the integration grid into batches with parallel hashing+maxmin method.
  | Number of batches:      965
  | Maximal batch size:     190
  | Minimal batch size:      58
  | Average batch size:      78.630
  | Standard deviation of batch sizes:      21.726

  Integration load balanced across     4 MPI tasks.
  Work distribution over tasks is as follows:
  Task     0 has      19013 integration points.
  Task     1 has      18935 integration points.
  Task     2 has      18887 integration points.
  Task     3 has      19043 integration points.
  Initializing partition tables, free-atom densities, potentials, etc. across the integration grid (initialize_grid_storage).
  | initialize_grid_storage: Actual outermost partition radius vs. multipole_radius_free
  | (-- VB: in principle, multipole_radius_free should be larger, hence this output)
  | Species        1: Confinement radius =              6.000000000000000 AA, multipole_radius_free =              6.029870734432609 AA.
  | Species        1: outer_partition_radius set to              6.029870734432609 AA .
  | Species        2: Confinement radius =              6.000000000000000 AA, multipole_radius_free =              6.071692442739658 AA.
  | Species        2: outer_partition_radius set to              6.071692442739658 AA .
  | Original list of interatomic distances with           5 x          5 entries is created.
  | Net number of integration points:    75878
  | of which are non-zero points    :    65289
  Renormalizing the initial density to the exact electron count on the 3D integration grid.
  | Initial density: Formal number of electrons (from input files) :      10.0000000000
  | Integrated number of electrons on 3D grid     :       9.9999983275
  | Charge integration error                      :      -0.0000016725
  | Normalization factor for density and gradient :       1.0000001673
  Obtaining max. number of non-zero basis functions in each batch (get_n_compute_maxes).
  | Maximal number of non-zero basis functions:       99 in task     0
  | Maximal number of non-zero basis functions:       99 in task     1
  | Maximal number of non-zero basis functions:       99 in task     2
  | Maximal number of non-zero basis functions:       99 in task     3
  Selecting the method for density update.
  Loop over occupied states selected for charge density update.
  Allocating        0.011 MB for KS_eigenvector
  Integrating Hamiltonian matrix: batch-based integration.
  Time summed over all CPUs for integration: real work        0.262 s, elapsed        0.284 s
  Integrating overlap matrix.
  Time summed over all CPUs for integration: real work        0.119 s, elapsed        0.183 s
  Deallocating overlap matrix.

  Updating Kohn-Sham eigenvalues and eigenvectors using ELSI and the ELPA eigensolver.
  ELPA settings:
  | ELPA solver          1
  | Time full => band           :     0.000 s
  | Time band => tridiagonal    :     0.000 s
  | Time solve tridiagonal      :     0.000 s
  Overlap matrix is nonsingular
  | Lowest eigenvalue of overlap  :  0.22E-03
  | Highest eigenvalue of overlap :  0.45E+01
  Finished singularity check of overlap matrix
  | Time :     0.001 s
  Finished Cholesky decomposition
  | Time :     0.000 s
  Finished transformation to standard eigenproblem
  | Time :     0.000 s
  Starting ELPA eigensolver
  | Time full => tridiagonal    :     0.001 s
  | Time solve tridiagonal      :     0.000 s
  | Time ev tridiagonal => full :     0.000 s
  Finished solving standard eigenproblem
  | Time :     0.001 s
  Finished back-transformation of eigenvectors
  | Time :     0.000 s

  Obtaining occupation numbers and chemical potential using ELSI.
  | Chemical potential (Fermi level):   -12.47437790eV
  Writing Kohn-Sham eigenvalues.

  State    Occupation    Eigenvalue [Ha]    Eigenvalue [eV]
      1       2.00000         -10.172041         -276.79531
      2       2.00000          -0.814456          -22.16247
      3       2.00000          -0.539239          -14.67345
      4       2.00000          -0.510742          -13.89798
      5       2.00000          -0.491344          -13.37015
      6       0.00000          -0.061746           -1.68019
      7       0.00000          -0.016410           -0.44653
      8       0.00000          -0.006806           -0.18520
      9       0.00000           0.001341            0.03650
     10       0.00000           0.036109            0.98258
     11       0.00000           0.041073            1.11765
     12       0.00000           0.058153            1.58241
     13       0.00000           0.139431            3.79411
     14       0.00000           0.189149            5.14702

  Highest occupied state (VBM) at    -13.37015265 eV
  | Occupation number:      2.00000000

  Lowest unoccupied state (CBM) at    -1.68018851 eV
  | Occupation number:      0.00000000

  Overall HOMO-LUMO gap:     11.68996413 eV.
  Calculating total energy contributions from superposition of free atom densities.

  Total energy components:
  | Sum of eigenvalues            :         -25.05564334 Ha        -681.79874470 eV
  | XC energy correction          :          -6.47111477 Ha        -176.08799211 eV
  | XC potential correction       :           8.31120739 Ha         226.15945996 eV
  | Free-atom electrostatic energy:         -17.37394867 Ha        -472.76919754 eV
  | Hartree energy correction     :           0.00000000 Ha           0.00000000 eV
  | Entropy correction            :          -0.00000000 Ha          -0.00000000 eV
  | ---------------------------
  | Total energy                  :         -40.58949938 Ha       -1104.49647439 eV
  | Total energy, T -> 0          :         -40.58949938 Ha       -1104.49647439 eV  <-- do not rely on this value for anything but (periodic) metals
  | Electronic free energy        :         -40.58949938 Ha       -1104.49647439 eV

  Derived energy quantities:
  | Kinetic energy                :          39.21195557 Ha        1067.01160007 eV
  | Electrostatic energy          :         -73.33034019 Ha       -1995.42008236 eV
  | Energy correction for multipole
  | error in Hartree potential    :           0.00000000 Ha           0.00000000 eV
  | Sum of eigenvalues per atom                           :        -136.35974894 eV
  | Total energy (T->0) per atom                          :        -220.89929488 eV  <-- do not rely on this value for anything but (periodic) metals
  | Electronic free energy per atom                       :        -220.89929488 eV
  Initialize hartree_potential_storage
  Max. number of atoms included in rho_multipole:            5

  End scf initialization - timings             :  max(cpu_time)    wall_clock(cpu1)
  | Time for scf. initialization               :        0.192 s           0.194 s
  | Boundary condition initialization          :        0.000 s           0.001 s
  | Integration                                :        0.120 s           0.121 s
  | Solution of K.-S. eqns.                    :        0.004 s           0.004 s
  | Grid partitioning                          :        0.036 s           0.033 s
  | Preloading free-atom quantities on grid    :        0.008 s           0.005 s
  | Free-atom superposition energy             :        0.012 s           0.011 s
  | Total energy evaluation                    :        0.004 s           0.000 s

  Partial memory accounting:
  | Current value for overall tracked memory usage on task 0  :           0.114 MB
  | Peak value for overall tracked memory usage on task 0     :           0.686 MB after allocating wave
  | Largest tracked array allocation on task 0 so far         :           0.150 MB  when allocating H_times_psi
  Note:  These values currently only include a subset of arrays which are explicitly tracked.
  The "true" memory usage will be greater.
------------------------------------------------------------

------------------------------------------------------------
          Begin self-consistency iteration #    1

  Date     :  20200519, Time     :  220452.975
------------------------------------------------------------
  Evaluating new KS density.
  Integration grid: deviation in total charge (<rho> - N_e) =   3.552714E-15
  Pulay mixing of updated and previous charge densities.

  Evaluating partitioned Hartree potential by multipole expansion.
  | Analytical far-field extrapolation by fixed multipoles:
  | Hartree multipole sum: apparent total charge =  -0.215767E-05
  Summing up the Hartree potential.
  Time summed over all CPUs for potential: real work        0.115 s, elapsed        0.121 s
  | RMS charge density error from multipole expansion :   0.127852E-02

  Integrating Hamiltonian matrix: batch-based integration.
  Time summed over all CPUs for integration: real work        0.257 s, elapsed        0.262 s

  Updating Kohn-Sham eigenvalues and eigenvectors using ELSI and the ELPA eigensolver.
  ELPA settings:
  | ELPA solver          1
  Finished transformation to standard eigenproblem
  | Time :     0.000 s
  Starting ELPA eigensolver
  | Time full => tridiagonal    :     0.001 s
  | Time solve tridiagonal      :     0.000 s
  | Time ev tridiagonal => full :     0.000 s
  Finished solving standard eigenproblem
  | Time :     0.001 s
  Finished back-transformation of eigenvectors
  | Time :     0.000 s

  Obtaining occupation numbers and chemical potential using ELSI.
  | Chemical potential (Fermi level):    -2.52456623eV
  Writing Kohn-Sham eigenvalues.

  State    Occupation    Eigenvalue [Ha]    Eigenvalue [eV]
      1       2.00000          -9.947073         -270.67364
      2       2.00000          -0.703005          -19.12974
      3       2.00000          -0.441423          -12.01173
      4       2.00000          -0.414222          -11.27156
      5       2.00000          -0.391786          -10.66105
      6       0.00000          -0.031491           -0.85692
      7       0.00000           0.019355            0.52667
      8       0.00000           0.029075            0.79116
      9       0.00000           0.032112            0.87381
     10       0.00000           0.057616            1.56782
     11       0.00000           0.069612            1.89423
     12       0.00000           0.090956            2.47505
     13       0.00000           0.174182            4.73974
     14       0.00000           0.225104            6.12540

  Highest occupied state (VBM) at    -10.66104782 eV
  | Occupation number:      2.00000000

  Lowest unoccupied state (CBM) at    -0.85691715 eV
  | Occupation number:      0.00000000

  Overall HOMO-LUMO gap:      9.80413067 eV.

  Total energy components:
  | Sum of eigenvalues            :         -23.79502001 Ha        -647.49543860 eV
  | XC energy correction          :          -6.62773209 Ha        -180.34976613 eV
  | XC potential correction       :           8.51442217 Ha         231.68921538 eV
  | Free-atom electrostatic energy:         -17.37394867 Ha        -472.76919754 eV
  | Hartree energy correction     :          -1.21375569 Ha         -33.02797289 eV
  | Entropy correction            :          -0.00000000 Ha          -0.00000000 eV
  | ---------------------------
  | Total energy                  :         -40.49603429 Ha       -1101.95315979 eV
  | Total energy, T -> 0          :         -40.49603429 Ha       -1101.95315979 eV  <-- do not rely on this value for anything but (periodic) metals
  | Electronic free energy        :         -40.49603429 Ha       -1101.95315979 eV

  Derived energy quantities:
  | Kinetic energy                :          39.97422306 Ha        1087.75395387 eV
  | Electrostatic energy          :         -73.84252527 Ha       -2009.35734752 eV
  | Energy correction for multipole
  | error in Hartree potential    :          -0.00154398 Ha          -0.04201390 eV
  | Sum of eigenvalues per atom                           :        -129.49908772 eV
  | Total energy (T->0) per atom                          :        -220.39063196 eV  <-- do not rely on this value for anything but (periodic) metals
  | Electronic free energy per atom                       :        -220.39063196 eV

  Self-consistency convergence accuracy:
  | Change of charge density      :  0.3101E+00
  | Change of sum of eigenvalues  :  0.3430E+02 eV
  | Change of total energy        :  0.2543E+01 eV

  End self-consistency iteration #     1       :  max(cpu_time)    wall_clock(cpu1)
  | Time for this iteration                    :        0.152 s           0.154 s
  | Charge density update                      :        0.052 s           0.049 s
  | Density mixing                             :        0.004 s           0.002 s
  | Hartree multipole update                   :        0.004 s           0.003 s
  | Hartree multipole summation                :        0.032 s           0.031 s
  | Integration                                :        0.068 s           0.066 s
  | Solution of K.-S. eqns.                    :        0.004 s           0.002 s
  | Total energy evaluation                    :        0.000 s           0.000 s

  Partial memory accounting:
  | Current value for overall tracked memory usage on task 0  :           0.114 MB
  | Peak value for overall tracked memory usage on task 0     :           0.716 MB after allocating gradient_basis_wave
  | Largest tracked array allocation on task 0 so far         :           0.451 MB  when allocating gradient_basis_wave
  Note:  These values currently only include a subset of arrays which are explicitly tracked.
  The "true" memory usage will be greater.
------------------------------------------------------------

------------------------------------------------------------
          Begin self-consistency iteration #    2

  Date     :  20200519, Time     :  220453.131
------------------------------------------------------------
  Evaluating new KS density.
  Integration grid: deviation in total charge (<rho> - N_e) =   1.776357E-15
  Pulay mixing of updated and previous charge densities.

  Evaluating partitioned Hartree potential by multipole expansion.
  | Analytical far-field extrapolation by fixed multipoles:
  | Hartree multipole sum: apparent total charge =  -0.183355E-05
  Summing up the Hartree potential.
  Time summed over all CPUs for potential: real work        0.114 s, elapsed        0.116 s
  | RMS charge density error from multipole expansion :   0.237738E-02

  Integrating Hamiltonian matrix: batch-based integration.
  Time summed over all CPUs for integration: real work        0.313 s, elapsed        0.475 s => Consider using load balancing!

  Updating Kohn-Sham eigenvalues and eigenvectors using ELSI and the ELPA eigensolver.
  ELPA settings:
  | ELPA solver          1
  Finished transformation to standard eigenproblem
  | Time :     0.000 s
  Starting ELPA eigensolver
  | Time full => tridiagonal    :     0.001 s
  | Time solve tridiagonal      :     0.000 s
  | Time ev tridiagonal => full :     0.000 s
  Finished solving standard eigenproblem
  | Time :     0.001 s
  Finished back-transformation of eigenvectors
  | Time :     0.000 s

  Obtaining occupation numbers and chemical potential using ELSI.
  | Chemical potential (Fermi level):    -1.95229827eV
  Highest occupied state (VBM) at     -9.38368792 eV
  | Occupation number:      2.00000000

  Lowest unoccupied state (CBM) at    -0.46064421 eV
  | Occupation number:      0.00000000

  Overall HOMO-LUMO gap:      8.92304371 eV.

  Checking to see if s.c.f. parameters should be adjusted.

  Total energy components:
  | Sum of eigenvalues            :         -23.28068960 Ha        -633.49979604 eV
  | XC energy correction          :          -6.71397391 Ha        -182.69652560 eV
  | XC potential correction       :           8.62537067 Ha         234.70827785 eV
  | Free-atom electrostatic energy:         -17.37394867 Ha        -472.76919754 eV
  | Hartree energy correction     :          -1.73740046 Ha         -47.27707199 eV
  | Entropy correction            :          -0.00000000 Ha          -0.00000000 eV
  | ---------------------------
  | Total energy                  :         -40.48064197 Ha       -1101.53431333 eV
  | Total energy, T -> 0          :         -40.48064197 Ha       -1101.53431333 eV  <-- do not rely on this value for anything but (periodic) metals
  | Electronic free energy        :         -40.48064197 Ha       -1101.53431333 eV

  Derived energy quantities:
  | Kinetic energy                :          40.17562187 Ha        1093.23429417 eV
  | Electrostatic energy          :         -73.94228992 Ha       -2012.07208190 eV
  | Energy correction for multipole
  | error in Hartree potential    :          -0.00232302 Ha          -0.06321251 eV
  | Sum of eigenvalues per atom                           :        -126.69995921 eV
  | Total energy (T->0) per atom                          :        -220.30686267 eV  <-- do not rely on this value for anything but (periodic) metals
  | Electronic free energy per atom                       :        -220.30686267 eV

  Self-consistency convergence accuracy:
  | Change of charge density      :  0.1655E+00
  | Change of sum of eigenvalues  :  0.1400E+02 eV
  | Change of total energy        :  0.4188E+00 eV

  End self-consistency iteration #     2       :  max(cpu_time)    wall_clock(cpu1)
  | Time for this iteration                    :        0.248 s           0.248 s
  | Charge density update                      :        0.092 s           0.092 s
  | Density mixing                             :        0.004 s           0.002 s
  | Hartree multipole update                   :        0.004 s           0.003 s
  | Hartree multipole summation                :        0.032 s           0.030 s
  | Integration                                :        0.120 s           0.119 s
  | Solution of K.-S. eqns.                    :        0.004 s           0.002 s
  | Total energy evaluation                    :        0.000 s           0.000 s

  Partial memory accounting:
  | Current value for overall tracked memory usage on task 0  :           0.114 MB
  | Peak value for overall tracked memory usage on task 0     :           0.716 MB after allocating gradient_basis_wave
  | Largest tracked array allocation on task 0 so far         :           0.451 MB  when allocating gradient_basis_wave
  Note:  These values currently only include a subset of arrays which are explicitly tracked.
  The "true" memory usage will be greater.
------------------------------------------------------------

------------------------------------------------------------
          Begin self-consistency iteration #    3

  Date     :  20200519, Time     :  220453.380
------------------------------------------------------------
  Evaluating new KS density.
  Integration grid: deviation in total charge (<rho> - N_e) =   5.329071E-15
  Pulay mixing of updated and previous charge densities.

  Evaluating partitioned Hartree potential by multipole expansion.
  | Analytical far-field extrapolation by fixed multipoles:
  | Hartree multipole sum: apparent total charge =  -0.105133E-05
  Summing up the Hartree potential.
  Time summed over all CPUs for potential: real work        0.188 s, elapsed        0.275 s
  | RMS charge density error from multipole expansion :   0.386598E-02

  Integrating Hamiltonian matrix: batch-based integration.
  Time summed over all CPUs for integration: real work        0.353 s, elapsed        0.494 s => Consider using load balancing!

  Updating Kohn-Sham eigenvalues and eigenvectors using ELSI and the ELPA eigensolver.
  ELPA settings:
  | ELPA solver          1
  Finished transformation to standard eigenproblem
  | Time :     0.000 s
  Starting ELPA eigensolver
  | Time full => tridiagonal    :     0.001 s
  | Time solve tridiagonal      :     0.000 s
  | Time ev tridiagonal => full :     0.000 s
  Finished solving standard eigenproblem
  | Time :     0.001 s
  Finished back-transformation of eigenvectors
  | Time :     0.000 s

  Obtaining occupation numbers and chemical potential using ELSI.
  | Chemical potential (Fermi level):    -1.62264039eV
  Highest occupied state (VBM) at     -8.61336434 eV
  | Occupation number:      2.00000000

  Lowest unoccupied state (CBM) at    -0.16028358 eV
  | Occupation number:      0.00000000

  Overall HOMO-LUMO gap:      8.45308076 eV.

  Total energy components:
  | Sum of eigenvalues            :         -23.06666730 Ha        -627.67595291 eV
  | XC energy correction          :          -6.77673719 Ha        -184.40440128 eV
  | XC potential correction       :           8.70523296 Ha         236.88144121 eV
  | Free-atom electrostatic energy:         -17.37394867 Ha        -472.76919754 eV
  | Hartree energy correction     :          -1.96417405 Ha         -53.44789528 eV
  | Entropy correction            :          -0.00000000 Ha          -0.00000000 eV
  | ---------------------------
  | Total energy                  :         -40.47629424 Ha       -1101.41600581 eV
  | Total energy, T -> 0          :         -40.47629424 Ha       -1101.41600581 eV  <-- do not rely on this value for anything but (periodic) metals
  | Electronic free energy        :         -40.47629424 Ha       -1101.41600581 eV

  Derived energy quantities:
  | Kinetic energy                :          40.13927595 Ha        1092.24527155 eV
  | Electrostatic energy          :         -73.83883301 Ha       -2009.25687608 eV
  | Energy correction for multipole
  | error in Hartree potential    :          -0.00281634 Ha          -0.07663660 eV
  | Sum of eigenvalues per atom                           :        -125.53519058 eV
  | Total energy (T->0) per atom                          :        -220.28320116 eV  <-- do not rely on this value for anything but (periodic) metals
  | Electronic free energy per atom                       :        -220.28320116 eV

  Self-consistency convergence accuracy:
  | Change of charge density      :  0.9745E-01
  | Change of sum of eigenvalues  :  0.5824E+01 eV
  | Change of total energy        :  0.1183E+00 eV

  End self-consistency iteration #     3       :  max(cpu_time)    wall_clock(cpu1)
  | Time for this iteration                    :        0.276 s           0.300 s
  | Charge density update                      :        0.060 s           0.077 s
  | Density mixing                             :        0.004 s           0.010 s
  | Hartree multipole update                   :        0.012 s           0.011 s
  | Hartree multipole summation                :        0.072 s           0.071 s
  | Integration                                :        0.124 s           0.124 s
  | Solution of K.-S. eqns.                    :        0.000 s           0.002 s
  | Total energy evaluation                    :        0.000 s           0.000 s

  Partial memory accounting:
  | Current value for overall tracked memory usage on task 0  :           0.114 MB
  | Peak value for overall tracked memory usage on task 0     :           0.716 MB after allocating gradient_basis_wave
  | Largest tracked array allocation on task 0 so far         :           0.451 MB  when allocating gradient_basis_wave
  Note:  These values currently only include a subset of arrays which are explicitly tracked.
  The "true" memory usage will be greater.
------------------------------------------------------------

------------------------------------------------------------
          Begin self-consistency iteration #    4

  Date     :  20200519, Time     :  220453.680
------------------------------------------------------------
  Evaluating new KS density.
  Integration grid: deviation in total charge (<rho> - N_e) =  -1.776357E-15
  Pulay mixing of updated and previous charge densities.

  Evaluating partitioned Hartree potential by multipole expansion.
  | Analytical far-field extrapolation by fixed multipoles:
  | Hartree multipole sum: apparent total charge =  -0.101290E-05
  Summing up the Hartree potential.
  Time summed over all CPUs for potential: real work        0.156 s, elapsed        0.237 s
  | RMS charge density error from multipole expansion :   0.400621E-02

  Integrating Hamiltonian matrix: batch-based integration.
  Time summed over all CPUs for integration: real work        0.278 s, elapsed        0.338 s

  Updating Kohn-Sham eigenvalues and eigenvectors using ELSI and the ELPA eigensolver.
  ELPA settings:
  | ELPA solver          1
  Finished transformation to standard eigenproblem
  | Time :     0.000 s
  Starting ELPA eigensolver
  | Time full => tridiagonal    :     0.001 s
  | Time solve tridiagonal      :     0.000 s
  | Time ev tridiagonal => full :     0.000 s
  Finished solving standard eigenproblem
  | Time :     0.001 s
  Finished back-transformation of eigenvectors
  | Time :     0.000 s

  Obtaining occupation numbers and chemical potential using ELSI.
  | Chemical potential (Fermi level):    -1.59511510eV
  Highest occupied state (VBM) at     -8.56720392 eV
  | Occupation number:      2.00000000

  Lowest unoccupied state (CBM) at    -0.13524437 eV
  | Occupation number:      0.00000000

  Overall HOMO-LUMO gap:      8.43195955 eV.

  Total energy components:
  | Sum of eigenvalues            :         -23.05149711 Ha        -627.26315118 eV
  | XC energy correction          :          -6.78020962 Ha        -184.49889107 eV
  | XC potential correction       :           8.70969463 Ha         237.00284936 eV
  | Free-atom electrostatic energy:         -17.37394867 Ha        -472.76919754 eV
  | Hartree energy correction     :          -1.98031883 Ha         -53.88721701 eV
  | Entropy correction            :          -0.00000000 Ha          -0.00000000 eV
  | ---------------------------
  | Total energy                  :         -40.47627960 Ha       -1101.41560744 eV
  | Total energy, T -> 0          :         -40.47627960 Ha       -1101.41560744 eV  <-- do not rely on this value for anything but (periodic) metals
  | Electronic free energy        :         -40.47627960 Ha       -1101.41560744 eV

  Derived energy quantities:
  | Kinetic energy                :          40.12911139 Ha        1091.96867973 eV
  | Electrostatic energy          :         -73.82518137 Ha       -2008.88539610 eV
  | Energy correction for multipole
  | error in Hartree potential    :          -0.00281156 Ha          -0.07650637 eV
  | Sum of eigenvalues per atom                           :        -125.45263024 eV
  | Total energy (T->0) per atom                          :        -220.28312149 eV  <-- do not rely on this value for anything but (periodic) metals
  | Electronic free energy per atom                       :        -220.28312149 eV

  Self-consistency convergence accuracy:
  | Change of charge density      :  0.6921E-02
  | Change of sum of eigenvalues  :  0.4128E+00 eV
  | Change of total energy        :  0.3984E-03 eV

  End self-consistency iteration #     4       :  max(cpu_time)    wall_clock(cpu1)
  | Time for this iteration                    :        0.252 s           0.248 s
  | Charge density update                      :        0.096 s           0.092 s
  | Density mixing                             :        0.004 s           0.003 s
  | Hartree multipole update                   :        0.004 s           0.003 s
  | Hartree multipole summation                :        0.064 s           0.063 s
  | Integration                                :        0.084 s           0.085 s
  | Solution of K.-S. eqns.                    :        0.004 s           0.002 s
  | Total energy evaluation                    :        0.000 s           0.000 s

  Partial memory accounting:
  | Current value for overall tracked memory usage on task 0  :           0.114 MB
  | Peak value for overall tracked memory usage on task 0     :           0.716 MB after allocating gradient_basis_wave
  | Largest tracked array allocation on task 0 so far         :           0.451 MB  when allocating gradient_basis_wave
  Note:  These values currently only include a subset of arrays which are explicitly tracked.
  The "true" memory usage will be greater.
------------------------------------------------------------

------------------------------------------------------------
          Begin self-consistency iteration #    5

  Date     :  20200519, Time     :  220453.928
------------------------------------------------------------
  Evaluating new KS density.
  Integration grid: deviation in total charge (<rho> - N_e) =  -8.881784E-15
  Pulay mixing of updated and previous charge densities.

  Evaluating partitioned Hartree potential by multipole expansion.
  | Analytical far-field extrapolation by fixed multipoles:
  | Hartree multipole sum: apparent total charge =  -0.102255E-05
  Summing up the Hartree potential.
  Time summed over all CPUs for potential: real work        0.115 s, elapsed        0.121 s
  | RMS charge density error from multipole expansion :   0.401807E-02

  Integrating Hamiltonian matrix: batch-based integration.
  Time summed over all CPUs for integration: real work        0.262 s, elapsed        0.268 s

  Updating Kohn-Sham eigenvalues and eigenvectors using ELSI and the ELPA eigensolver.
  ELPA settings:
  | ELPA solver          1
  Finished transformation to standard eigenproblem
  | Time :     0.000 s
  Starting ELPA eigensolver
  | Time full => tridiagonal    :     0.001 s
  | Time solve tridiagonal      :     0.000 s
  | Time ev tridiagonal => full :     0.000 s
  Finished solving standard eigenproblem
  | Time :     0.001 s
  Finished back-transformation of eigenvectors
  | Time :     0.000 s

  Obtaining occupation numbers and chemical potential using ELSI.
  | Chemical potential (Fermi level):    -1.60231683eV
  Highest occupied state (VBM) at     -8.58911213 eV
  | Occupation number:      2.00000000

  Lowest unoccupied state (CBM) at    -0.14032623 eV
  | Occupation number:      0.00000000

  Overall HOMO-LUMO gap:      8.44878590 eV.

  Total energy components:
  | Sum of eigenvalues            :         -23.05924766 Ha        -627.47405430 eV
  | XC energy correction          :          -6.77795444 Ha        -184.43752449 eV
  | XC potential correction       :           8.70681932 Ha         236.92460842 eV
  | Free-atom electrostatic energy:         -17.37394867 Ha        -472.76919754 eV
  | Hartree energy correction     :          -1.97194496 Ha         -53.65935245 eV
  | Entropy correction            :          -0.00000000 Ha          -0.00000000 eV
  | ---------------------------
  | Total energy                  :         -40.47627640 Ha       -1101.41552036 eV
  | Total energy, T -> 0          :         -40.47627640 Ha       -1101.41552036 eV  <-- do not rely on this value for anything but (periodic) metals
  | Electronic free energy        :         -40.47627640 Ha       -1101.41552036 eV

  Derived energy quantities:
  | Kinetic energy                :          40.12087101 Ha        1091.74444745 eV
  | Electrostatic energy          :         -73.81919297 Ha       -2008.72244332 eV
  | Energy correction for multipole
  | error in Hartree potential    :          -0.00277034 Ha          -0.07538482 eV
  | Sum of eigenvalues per atom                           :        -125.49481086 eV
  | Total energy (T->0) per atom                          :        -220.28310407 eV  <-- do not rely on this value for anything but (periodic) metals
  | Electronic free energy per atom                       :        -220.28310407 eV

  Self-consistency convergence accuracy:
  | Change of charge density      :  0.2896E-02
  | Change of sum of eigenvalues  : -0.2109E+00 eV
  | Change of total energy        :  0.8708E-04 eV

  End self-consistency iteration #     5       :  max(cpu_time)    wall_clock(cpu1)
  | Time for this iteration                    :        0.180 s           0.179 s
  | Charge density update                      :        0.072 s           0.071 s
  | Density mixing                             :        0.004 s           0.004 s
  | Hartree multipole update                   :        0.004 s           0.003 s
  | Hartree multipole summation                :        0.032 s           0.031 s
  | Integration                                :        0.068 s           0.067 s
  | Solution of K.-S. eqns.                    :        0.004 s           0.002 s
  | Total energy evaluation                    :        0.000 s           0.000 s

  Partial memory accounting:
  | Current value for overall tracked memory usage on task 0  :           0.114 MB
  | Peak value for overall tracked memory usage on task 0     :           0.716 MB after allocating gradient_basis_wave
  | Largest tracked array allocation on task 0 so far         :           0.451 MB  when allocating gradient_basis_wave
  Note:  These values currently only include a subset of arrays which are explicitly tracked.
  The "true" memory usage will be greater.
------------------------------------------------------------

------------------------------------------------------------
          Begin self-consistency iteration #    6

  Date     :  20200519, Time     :  220454.108
------------------------------------------------------------
  Evaluating new KS density.
  Integration grid: deviation in total charge (<rho> - N_e) =   7.105427E-15
  Pulay mixing of updated and previous charge densities.

  Evaluating partitioned Hartree potential by multipole expansion.
  | Analytical far-field extrapolation by fixed multipoles:
  | Hartree multipole sum: apparent total charge =  -0.102320E-05
  Summing up the Hartree potential.
  Time summed over all CPUs for potential: real work        0.130 s, elapsed        0.146 s
  | RMS charge density error from multipole expansion :   0.403590E-02

  Integrating Hamiltonian matrix: batch-based integration.
  Time summed over all CPUs for integration: real work        0.259 s, elapsed        0.261 s

  Updating Kohn-Sham eigenvalues and eigenvectors using ELSI and the ELPA eigensolver.
  ELPA settings:
  | ELPA solver          1
  Finished transformation to standard eigenproblem
  | Time :     0.000 s
  Starting ELPA eigensolver
  | Time full => tridiagonal    :     0.001 s
  | Time solve tridiagonal      :     0.000 s
  | Time ev tridiagonal => full :     0.000 s
  Finished solving standard eigenproblem
  | Time :     0.001 s
  Finished back-transformation of eigenvectors
  | Time :     0.000 s

  Obtaining occupation numbers and chemical potential using ELSI.
  | Chemical potential (Fermi level):    -1.60098933eV
  Highest occupied state (VBM) at     -8.58736713 eV
  | Occupation number:      2.00000000

  Lowest unoccupied state (CBM) at    -0.13921142 eV
  | Occupation number:      0.00000000

  Overall HOMO-LUMO gap:      8.44815571 eV.

  Total energy components:
  | Sum of eigenvalues            :         -23.05930886 Ha        -627.47571958 eV
  | XC energy correction          :          -6.77766322 Ha        -184.42959997 eV
  | XC potential correction       :           8.70645705 Ha         236.91475051 eV
  | Free-atom electrostatic energy:         -17.37394867 Ha        -472.76919754 eV
  | Hartree energy correction     :          -1.97181283 Ha         -53.65575704 eV
  | Entropy correction            :          -0.00000000 Ha          -0.00000000 eV
  | ---------------------------
  | Total energy                  :         -40.47627652 Ha       -1101.41552363 eV
  | Total energy, T -> 0          :         -40.47627652 Ha       -1101.41552363 eV  <-- do not rely on this value for anything but (periodic) metals
  | Electronic free energy        :         -40.47627652 Ha       -1101.41552363 eV

  Derived energy quantities:
  | Kinetic energy                :          40.11851474 Ha        1091.68033015 eV
  | Electrostatic energy          :         -73.81712804 Ha       -2008.66625381 eV
  | Energy correction for multipole
  | error in Hartree potential    :          -0.00275706 Ha          -0.07502343 eV
  | Sum of eigenvalues per atom                           :        -125.49514392 eV
  | Total energy (T->0) per atom                          :        -220.28310473 eV  <-- do not rely on this value for anything but (periodic) metals
  | Electronic free energy per atom                       :        -220.28310473 eV

  Self-consistency convergence accuracy:
  | Change of charge density      :  0.8846E-03
  | Change of sum of eigenvalues  : -0.1665E-02 eV
  | Change of total energy        : -0.3266E-05 eV

  End self-consistency iteration #     6       :  max(cpu_time)    wall_clock(cpu1)
  | Time for this iteration                    :        0.160 s           0.161 s
  | Charge density update                      :        0.048 s           0.047 s
  | Density mixing                             :        0.004 s           0.004 s
  | Hartree multipole update                   :        0.004 s           0.003 s
  | Hartree multipole summation                :        0.040 s           0.037 s
  | Integration                                :        0.068 s           0.065 s
  | Solution of K.-S. eqns.                    :        0.000 s           0.002 s
  | Total energy evaluation                    :        0.000 s           0.000 s

  Partial memory accounting:
  | Current value for overall tracked memory usage on task 0  :           0.114 MB
  | Peak value for overall tracked memory usage on task 0     :           0.716 MB after allocating gradient_basis_wave
  | Largest tracked array allocation on task 0 so far         :           0.451 MB  when allocating gradient_basis_wave
  Note:  These values currently only include a subset of arrays which are explicitly tracked.
  The "true" memory usage will be greater.
------------------------------------------------------------

------------------------------------------------------------
          Begin self-consistency iteration #    7

  Date     :  20200519, Time     :  220454.269
------------------------------------------------------------
  Evaluating new KS density.
  Integration grid: deviation in total charge (<rho> - N_e) =   5.329071E-15
  Pulay mixing of updated and previous charge densities.

  Evaluating partitioned Hartree potential by multipole expansion.
  | Analytical far-field extrapolation by fixed multipoles:
  | Hartree multipole sum: apparent total charge =  -0.102447E-05
  Summing up the Hartree potential.
  Time summed over all CPUs for potential: real work        0.115 s, elapsed        0.117 s
  | RMS charge density error from multipole expansion :   0.403596E-02

  Integrating Hamiltonian matrix: batch-based integration.
  Time summed over all CPUs for integration: real work        0.268 s, elapsed        0.303 s

  Updating Kohn-Sham eigenvalues and eigenvectors using ELSI and the ELPA eigensolver.
  ELPA settings:
  | ELPA solver          1
  Finished transformation to standard eigenproblem
  | Time :     0.000 s
  Starting ELPA eigensolver
  | Time full => tridiagonal    :     0.001 s
  | Time solve tridiagonal      :     0.000 s
  | Time ev tridiagonal => full :     0.000 s
  Finished solving standard eigenproblem
  | Time :     0.001 s
  Finished back-transformation of eigenvectors
  | Time :     0.000 s

  Obtaining occupation numbers and chemical potential using ELSI.
  | Chemical potential (Fermi level):    -1.60231659eV
  Highest occupied state (VBM) at     -8.59131319 eV
  | Occupation number:      2.00000000

  Lowest unoccupied state (CBM) at    -0.14025870 eV
  | Occupation number:      0.00000000

  Overall HOMO-LUMO gap:      8.45105449 eV.

  Total energy components:
  | Sum of eigenvalues            :         -23.06068382 Ha        -627.51313416 eV
  | XC energy correction          :          -6.77734549 Ha        -184.42095399 eV
  | XC potential correction       :           8.70605010 Ha         236.90367662 eV
  | Free-atom electrostatic energy:         -17.37394867 Ha        -472.76919754 eV
  | Hartree energy correction     :          -1.97034874 Ha         -53.61591703 eV
  | Entropy correction            :          -0.00000000 Ha          -0.00000000 eV
  | ---------------------------
  | Total energy                  :         -40.47627662 Ha       -1101.41552611 eV
  | Total energy, T -> 0          :         -40.47627662 Ha       -1101.41552611 eV  <-- do not rely on this value for anything but (periodic) metals
  | Electronic free energy        :         -40.47627662 Ha       -1101.41552611 eV

  Derived energy quantities:
  | Kinetic energy                :          40.11784327 Ha        1091.66205846 eV
  | Electrostatic energy          :         -73.81677439 Ha       -2008.65663057 eV
  | Energy correction for multipole
  | error in Hartree potential    :          -0.00275253 Ha          -0.07490024 eV
  | Sum of eigenvalues per atom                           :        -125.50262683 eV
  | Total energy (T->0) per atom                          :        -220.28310522 eV  <-- do not rely on this value for anything but (periodic) metals
  | Electronic free energy per atom                       :        -220.28310522 eV

  Self-consistency convergence accuracy:
  | Change of charge density      :  0.1840E-03
  | Change of sum of eigenvalues  : -0.3741E-01 eV
  | Change of total energy        : -0.2485E-05 eV

  End self-consistency iteration #     7       :  max(cpu_time)    wall_clock(cpu1)
  | Time for this iteration                    :        0.164 s           0.165 s
  | Charge density update                      :        0.048 s           0.049 s
  | Density mixing                             :        0.004 s           0.004 s
  | Hartree multipole update                   :        0.004 s           0.003 s
  | Hartree multipole summation                :        0.032 s           0.030 s
  | Integration                                :        0.076 s           0.076 s
  | Solution of K.-S. eqns.                    :        0.004 s           0.002 s
  | Total energy evaluation                    :        0.000 s           0.001 s

  Partial memory accounting:
  | Current value for overall tracked memory usage on task 0  :           0.114 MB
  | Peak value for overall tracked memory usage on task 0     :           0.716 MB after allocating gradient_basis_wave
  | Largest tracked array allocation on task 0 so far         :           0.451 MB  when allocating gradient_basis_wave
  Note:  These values currently only include a subset of arrays which are explicitly tracked.
  The "true" memory usage will be greater.
------------------------------------------------------------

------------------------------------------------------------
          Begin self-consistency iteration #    8

  Date     :  20200519, Time     :  220454.435
------------------------------------------------------------
  Evaluating new KS density.
  Integration grid: deviation in total charge (<rho> - N_e) =  -3.552714E-15
  Pulay mixing of updated and previous charge densities.

  Evaluating partitioned Hartree potential by multipole expansion.
  | Analytical far-field extrapolation by fixed multipoles:
  | Hartree multipole sum: apparent total charge =  -0.102380E-05
  Summing up the Hartree potential.
  Time summed over all CPUs for potential: real work        0.116 s, elapsed        0.118 s
  | RMS charge density error from multipole expansion :   0.403713E-02

  Integrating Hamiltonian matrix: batch-based integration.
  Time summed over all CPUs for integration: real work        0.257 s, elapsed        0.262 s

  Updating Kohn-Sham eigenvalues and eigenvectors using ELSI and the ELPA eigensolver.
  ELPA settings:
  | ELPA solver          1
  Finished transformation to standard eigenproblem
  | Time :     0.000 s
  Starting ELPA eigensolver
  | Time full => tridiagonal    :     0.001 s
  | Time solve tridiagonal      :     0.000 s
  | Time ev tridiagonal => full :     0.000 s
  Finished solving standard eigenproblem
  | Time :     0.001 s
  Finished back-transformation of eigenvectors
  | Time :     0.000 s

  Obtaining occupation numbers and chemical potential using ELSI.
  | Chemical potential (Fermi level):    -1.60140306eV
  Highest occupied state (VBM) at     -8.58942310 eV
  | Occupation number:      2.00000000

  Lowest unoccupied state (CBM) at    -0.13961386 eV
  | Occupation number:      0.00000000

  Overall HOMO-LUMO gap:      8.44980924 eV.

  Total energy components:
  | Sum of eigenvalues            :         -23.05991716 Ha        -627.49227226 eV
  | XC energy correction          :          -6.77751076 Ha        -184.42545121 eV
  | XC potential correction       :           8.70626246 Ha         236.90945541 eV
  | Free-atom electrostatic energy:         -17.37394867 Ha        -472.76919754 eV
  | Hartree energy correction     :          -1.97116243 Ha         -53.63805892 eV
  | Entropy correction            :          -0.00000000 Ha          -0.00000000 eV
  | ---------------------------
  | Total energy                  :         -40.47627656 Ha       -1101.41552452 eV
  | Total energy, T -> 0          :         -40.47627656 Ha       -1101.41552452 eV  <-- do not rely on this value for anything but (periodic) metals
  | Electronic free energy        :         -40.47627656 Ha       -1101.41552452 eV

  Derived energy quantities:
  | Kinetic energy                :          40.11823467 Ha        1091.67270897 eV
  | Electrostatic energy          :         -73.81700046 Ha       -2008.66278228 eV
  | Energy correction for multipole
  | error in Hartree potential    :          -0.00275445 Ha          -0.07495227 eV
  | Sum of eigenvalues per atom                           :        -125.49845445 eV
  | Total energy (T->0) per atom                          :        -220.28310490 eV  <-- do not rely on this value for anything but (periodic) metals
  | Electronic free energy per atom                       :        -220.28310490 eV

  Self-consistency convergence accuracy:
  | Change of charge density      :  0.1379E-03
  | Change of sum of eigenvalues  :  0.2086E-01 eV
  | Change of total energy        :  0.1590E-05 eV

  End self-consistency iteration #     8       :  max(cpu_time)    wall_clock(cpu1)
  | Time for this iteration                    :        0.156 s           0.154 s
  | Charge density update                      :        0.048 s           0.047 s
  | Density mixing                             :        0.004 s           0.005 s
  | Hartree multipole update                   :        0.004 s           0.003 s
  | Hartree multipole summation                :        0.032 s           0.030 s
  | Integration                                :        0.068 s           0.066 s
  | Solution of K.-S. eqns.                    :        0.004 s           0.002 s
  | Total energy evaluation                    :        0.000 s           0.001 s

  Partial memory accounting:
  | Current value for overall tracked memory usage on task 0  :           0.114 MB
  | Peak value for overall tracked memory usage on task 0     :           0.716 MB after allocating gradient_basis_wave
  | Largest tracked array allocation on task 0 so far         :           0.451 MB  when allocating gradient_basis_wave
  Note:  These values currently only include a subset of arrays which are explicitly tracked.
  The "true" memory usage will be greater.
------------------------------------------------------------

------------------------------------------------------------
          Begin self-consistency iteration #    9

  Date     :  20200519, Time     :  220454.590
------------------------------------------------------------
  Evaluating new KS density.
  Integration grid: deviation in total charge (<rho> - N_e) =   3.552714E-15
  Pulay mixing of updated and previous charge densities.

  Evaluating partitioned Hartree potential by multipole expansion.
  | Analytical far-field extrapolation by fixed multipoles:
  | Hartree multipole sum: apparent total charge =  -0.102380E-05
  Summing up the Hartree potential.
  Time summed over all CPUs for potential: real work        0.115 s, elapsed        0.117 s
  | RMS charge density error from multipole expansion :   0.403721E-02

  Integrating Hamiltonian matrix: batch-based integration.
  Time summed over all CPUs for integration: real work        0.272 s, elapsed        0.314 s

  Updating Kohn-Sham eigenvalues and eigenvectors using ELSI and the ELPA eigensolver.
  ELPA settings:
  | ELPA solver          1
  Finished transformation to standard eigenproblem
  | Time :     0.000 s
  Starting ELPA eigensolver
  | Time full => tridiagonal    :     0.001 s
  | Time solve tridiagonal      :     0.000 s
  | Time ev tridiagonal => full :     0.000 s
  Finished solving standard eigenproblem
  | Time :     0.001 s
  Finished back-transformation of eigenvectors
  | Time :     0.000 s

  Obtaining occupation numbers and chemical potential using ELSI.
  | Chemical potential (Fermi level):    -1.60138469eV
  Highest occupied state (VBM) at     -8.58939736 eV
  | Occupation number:      2.00000000

  Lowest unoccupied state (CBM) at    -0.13960151 eV
  | Occupation number:      0.00000000

  Overall HOMO-LUMO gap:      8.44979586 eV.

  Total energy components:
  | Sum of eigenvalues            :         -23.05990549 Ha        -627.49195483 eV
  | XC energy correction          :          -6.77751364 Ha        -184.42552967 eV
  | XC potential correction       :           8.70626618 Ha         236.90955653 eV
  | Free-atom electrostatic energy:         -17.37394867 Ha        -472.76919754 eV
  | Hartree energy correction     :          -1.97117493 Ha         -53.63839900 eV
[...]
  | ---------------------------
  | Total energy                  :         -40.47627656 Ha       -1101.41552454 eV
  | Total energy, T -> 0          :         -40.47627656 Ha       -1101.41552454 eV  <-- do not rely on this value for anything but (periodic) metals
  | Electronic free energy        :         -40.47627656 Ha       -1101.41552454 eV

  Derived energy quantities:
  | Kinetic energy                :          40.11826976 Ha        1091.67366396 eV
  | Electrostatic energy          :         -73.81703088 Ha       -2008.66361004 eV
  | Energy correction for multipole
  | error in Hartree potential    :          -0.00275455 Ha          -0.07495520 eV
  | Sum of eigenvalues per atom                           :        -125.49836503 eV
  | Total energy (T->0) per atom                          :        -220.28310491 eV  <-- do not rely on this value for anything but (periodic) metals
  | Electronic free energy per atom                       :        -220.28310491 eV

  Self-consistency convergence accuracy:
  | Change of charge density      :  0.1986E-06
  | Change of sum of eigenvalues  :  0.2769E-05 eV
  | Change of total energy        : -0.9252E-09 eV

  Writing Kohn-Sham eigenvalues.

  State    Occupation    Eigenvalue [Ha]    Eigenvalue [eV]
      1       2.00000          -9.889568         -269.10885
      2       2.00000          -0.620718          -16.89059
      3       2.00000          -0.365335           -9.94127
      4       2.00000          -0.338675           -9.21582
      5       2.00000          -0.315654           -8.58939
      6       0.00000          -0.005130           -0.13959
      7       0.00000           0.043785            1.19145
      8       0.00000           0.051619            1.40462
      9       0.00000           0.054648            1.48704
     10       0.00000           0.091765            2.49704
     11       0.00000           0.106420            2.89583
     12       0.00000           0.126810            3.45069
     13       0.00000           0.209862            5.71063
     14       0.00000           0.258271            7.02790

  Highest occupied state (VBM) at     -8.58939238 eV
  | Occupation number:      2.00000000

  Lowest unoccupied state (CBM) at    -0.13959385 eV
  | Occupation number:      0.00000000

  Overall HOMO-LUMO gap:      8.44979853 eV.

  Self-consistency cycle converged.

  End self-consistency iteration #    12       :  max(cpu_time)    wall_clock(cpu1)
  | Time for this iteration                    :        0.164 s           0.163 s
  | Charge density update                      :        0.056 s           0.055 s
  | Density mixing                             :        0.004 s           0.004 s
  | Hartree multipole update                   :        0.004 s           0.003 s
  | Hartree multipole summation                :        0.032 s           0.030 s
  | Integration                                :        0.068 s           0.067 s
  | Solution of K.-S. eqns.                    :        0.004 s           0.002 s
  | Total energy evaluation                    :        0.000 s           0.001 s

  Partial memory accounting:
  | Current value for overall tracked memory usage on task 0  :           0.114 MB
  | Peak value for overall tracked memory usage on task 0     :           0.716 MB after allocating gradient_basis_wave
  | Largest tracked array allocation on task 0 so far         :           0.451 MB  when allocating gradient_basis_wave
  Note:  These values currently only include a subset of arrays which are explicitly tracked.
  The "true" memory usage will be greater.
------------------------------------------------------------
  |------------------------------------------
  | Final ELSI Output
  |------------------------------------------
  | Number of basis functions :           99
  | Number of electrons       :         10.0
  | Number of spins           :            1
  | Number of k-points        :            1
  | Number of states          :           14
  | Solver                    :         ELPA
  | Parallel mode             :   MULTI_PROC
  | Matrix format             :  BLACS_DENSE
  | Matrix sparsity           :        0.000
  |------------------------------------------
  | ELSI Project (c)  elsi-interchange.org
  |------------------------------------------
  Obtaining max. number of non-zero basis functions in each batch .
  Evaluating KS electron density on previously omitted grid points.
  Performing Hirshfeld analysis of fragment charges and moments.
  ----------------------------------------------------------------------
  | Atom     1: C
  |   Hirshfeld charge        :     -0.16076033
  |   Free atom volume        :     38.37861207
  |   Hirshfeld volume        :     28.85603337
  |   Hirshfeld dipole vector :      0.00028981       0.00851245       0.01543298
  |   Hirshfeld dipole moment :      0.01762732
  |   Hirshfeld second moments:      0.16990397       0.00145395      -0.00265775
  |                                  0.00145395       0.17467011      -0.00343298
  |                                 -0.00265775      -0.00343298       0.17191579
  ----------------------------------------------------------------------
  | Atom     2: H
  |   Hirshfeld charge        :      0.04170452
  |   Free atom volume        :     10.31539447
  |   Hirshfeld volume        :      6.15640814
  |   Hirshfeld dipole vector :     -0.05862085       0.03645715      -0.06038841
  |   Hirshfeld dipole moment :      0.09171853
  |   Hirshfeld second moments:      0.09729768       0.01190274      -0.00420608
  |                                  0.01190274       0.10618090       0.00484472
  |                                 -0.00420608       0.00484472       0.10905620
  ----------------------------------------------------------------------
  | Atom     3: H
  |   Hirshfeld charge        :      0.03530052
  |   Free atom volume        :     10.31539447
  |   Hirshfeld volume        :      6.11053661
  |   Hirshfeld dipole vector :     -0.03072072      -0.08319558       0.01781765
  |   Hirshfeld dipole moment :      0.09045847
  |   Hirshfeld second moments:      0.10850923      -0.00702743       0.00511266
  |                                 -0.00702743       0.09356795       0.00486942
  |                                  0.00511266       0.00486942       0.11377427
  ----------------------------------------------------------------------
  | Atom     4: H
  |   Hirshfeld charge        :      0.05237188
  |   Free atom volume        :     10.31539447
  |   Hirshfeld volume        :      6.15105448
  |   Hirshfeld dipole vector :      0.05121750       0.02449450       0.07109963
  |   Hirshfeld dipole moment :      0.09098555
  |   Hirshfeld second moments:      0.10493966      -0.00380889      -0.00710016
  |                                 -0.00380889       0.10905603      -0.00804778
  |                                 -0.00710016      -0.00804778       0.10012500
  ----------------------------------------------------------------------
  | Atom     5: H
  |   Hirshfeld charge        :      0.03138157
  |   Free atom volume        :     10.31539447
  |   Hirshfeld volume        :      6.16431288
  |   Hirshfeld dipole vector :      0.03691085      -0.01272855      -0.07861964
  |   Hirshfeld dipole moment :      0.08778083
  |   Hirshfeld second moments:      0.10087446       0.00456371       0.01345806
  |                                  0.00456371       0.11073070      -0.00352346
  |                                  0.01345806      -0.00352346       0.09797751
  ----------------------------------------------------------------------

  | Many-Body Dispersion (MBD@rsSCS) energy
  | Total dynamic anisotropic polarizability, \alpha_{ij}(iu), (a.u.)
  | -------------------------------------------------------------------
  |      u            xx         yy         zz         yz         xz         xy
  |   0.000000     17.489     17.387     19.222     -0.259      1.237      0.324
  |   0.003624     17.488     17.386     19.221     -0.259      1.237      0.324
  |   0.019427     17.461     17.361     19.193     -0.259      1.235      0.323
  |   0.049278     17.314     17.217     19.035     -0.261      1.224      0.321
  |   0.095887     16.844     16.760     18.532     -0.265      1.186      0.312
  |   0.163858     15.727     15.675     17.328     -0.272      1.092      0.291
  |   0.260739     13.604     13.611     15.005     -0.276      0.895      0.246
  |   0.399006     10.402     10.475     11.423     -0.249      0.576      0.173
  |   0.600000      6.735      6.821      7.262     -0.162      0.244      0.088
  |   0.902242      3.670      3.713      3.843     -0.063      0.065      0.029
  |   1.380693      1.740      1.751      1.779     -0.015      0.013      0.007
  |   2.197021      0.725      0.727      0.732     -0.002      0.002      0.001
  |   3.754417      0.255      0.255      0.256     -0.000      0.000      0.000
  |   7.305481      0.068      0.068      0.068     -0.000      0.000      0.000
  |  18.530638      0.011      0.011      0.011     -0.000      0.000      0.000
  |  99.337689      0.000      0.000      0.000     -0.000      0.000      0.000
  | --------------------------------------------------------------
  | Partitioned atomic C6 coefficients and polarizabilities (a.u.)
  | --------------------------------------------------------------
  | ATOM   1  C   32.361292          9.777826
  | ATOM   2  H    1.659659          2.077813
  | ATOM   3  H    1.487957          1.930775
  | ATOM   4  H    1.894290          2.281047
  | ATOM   5  H    1.527095          1.965245
  | --------------------------------------------------------------
  | Computing MBD@rsSCS energy...
  | --------------------------------------------------------------

  Total energy components:
  | Sum of eigenvalues            :         -23.05990072 Ha        -627.49182515 eV
  | XC energy correction          :          -6.77751544 Ha        -184.42557846 eV
  | XC potential correction       :           8.70626850 Ha         236.90961981 eV
  | Free-atom electrostatic energy:         -17.37394867 Ha        -472.76919754 eV
  | Hartree energy correction     :          -1.97118023 Ha         -53.63854319 eV
  | MBD@rsSCS energy              :          -0.00094318 Ha          -0.02566534 eV
  | Entropy correction            :          -0.00000000 Ha          -0.00000000 eV
  | ---------------------------
  | Total energy                  :         -40.47721974 Ha       -1101.44118988 eV
  | Total energy, T -> 0          :         -40.47721974 Ha       -1101.44118988 eV  <-- do not rely on this value for anything but (periodic) metals
  | Electronic free energy        :         -40.47721974 Ha       -1101.44118988 eV

  Derived energy quantities:
  | Kinetic energy                :          40.11826976 Ha        1091.67366396 eV
  | Electrostatic energy          :         -73.81703088 Ha       -2008.66361004 eV
  | Energy correction for multipole
  | error in Hartree potential    :          -0.00275455 Ha          -0.07495520 eV
  | Sum of eigenvalues per atom                           :        -125.49836503 eV
  | Total energy (T->0) per atom                          :        -220.28823798 eV  <-- do not rely on this value for anything but (periodic) metals
  | Electronic free energy per atom                       :        -220.28823798 eV
  Timings for VdW correction (Tkatchenko-Scheffler 2009 or later):
  | CPU time:        0.096 s, Wall clock time:        0.098 s.
  ------------------------------------------------------------
   Computing monopole / dipole moments for complete molecule:
  | Total electronic charge [e]         :          0.100000000000000E+02
  | Total ionic charge [e]              :          0.100000000000000E+02
  | Total charge [e]                    :          0.355271367880050E-14
  | Total dipole moment [eAng]          :          0.447730530649234E-02        -0.203849000105907E-01        -0.299609715996555E-01
  | Absolute dipole moment              :          0.365136992161119E-01 eAng              /                   0.175355438566340E+00 Debye  .

  Energy and forces in a compact form:
  | Total energy uncorrected      :         -0.110144118987776E+04 eV
  | Total energy corrected        :         -0.110144118987776E+04 eV  <-- do not rely on this value for anything but (periodic) metals
  | Electronic free energy        :         -0.110144118987776E+04 eV

  ------------------------------------ 
  Start decomposition of the XC Energy 
  ------------------------------------ 
  X and C from original XC functional choice 
  Hartree-Fock Energy :          0.000000000 Ha              0.000000000 eV
  X Energy            :         -6.479808522 Ha           -176.324561168 eV
  C Energy            :         -0.297706914 Ha             -8.101017297 eV
  Total XC Energy     :         -6.777515435 Ha           -184.425578465 eV
  ------------------------------------ 
  LDA X and C from self-consistent density 
  X Energy LDA        :         -5.839003596 Ha           -158.887371946 eV
  C Energy LDA        :         -0.587496637 Ha            -15.986596895 eV
  ------------------------------------ 
  End decomposition of the XC Energy 
  ------------------------------------ 

------------------------------------------------------------

------------------------------------------------------------------------------
  Final output of selected total energy values:

  The following output summarizes some interesting total energy values
  at the end of a run (AFTER all relaxation, molecular dynamics, etc.).

  | Total energy of the DFT / Hartree-Fock s.c.f. calculation      :          -1101.441189878 eV
  | Final zero-broadening corrected energy (caution - metals only) :          -1101.441189878 eV
  | For reference only, the value of 1 Hartree used in FHI-aims is :             27.211384500 eV

  Before relying on these values, please be sure to understand exactly which
  total energy value is referred to by a given number. Different objects may
  all carry the same name 'total energy'. Definitions:

  Total energy of the DFT / Hartree-Fock s.c.f. calculation:
  | Note that this energy does not include ANY quantities calculated after the
  | s.c.f. cycle, in particular not ANY RPA, MP2, etc. many-body perturbation terms.

  Final zero-broadening corrected energy:
  | For metallic systems only, a broadening of the occupation numbers at the Fermi
  | level can be extrapolated back to zero broadening by an electron-gas inspired
  | formula. For all systems that are not real metals, this value can be
  | meaningless and should be avoided.

------------------------------------------------------------------------------
  Methods described in the following list of references were used in this FHI-aims run.
  If you publish the results, please make sure to cite these reference if they apply.
  FHI-aims is an academic code, and for our developers (often, Ph.D. students
  and postdocs), scientific credit in the community is essential.
  Thank you for helping us!

  For any use of FHI-aims, please cite:

    Volker Blum, Ralf Gehrke, Felix Hanke, Paula Havu, Ville Havu,
    Xinguo Ren, Karsten Reuter, and Matthias Scheffler
    'Ab initio molecular simulations with numeric atom-centered orbitals'
    Computer Physics Communications 180, 2175-2196 (2009)
    http://dx.doi.org/10.1016/j.cpc.2009.06.022


  The scalable eigensolver library ELPA was used in your run.
  ELPA is essential especially for large systems on hundreds or thousands of CPUs.
  For ELPA, please cite:

    Andreas Marek, Volker Blum, Rainer Johanni, Ville Havu, Bruno Lang,
    Thomas Auckenthaler, Alexander Heinecke, Hans-Joachim Bungartz, and Hermann Lederer,
    'The ELPA Library - Scalable Parallel Eigenvalue Solutions
    for Electronic Structure Theory and Computational Science'
    The Journal of Physics: Condensed Matter 26, 213201 (2014).
    http://dx.doi.org/10.1088/0953-8984/26/21/213201


  The ELSI infrastructure was used in your run to solve the Kohn-Sham electronic structure.
  Please check out http://elsi-interchange.org to learn more.
  If scalability is important for your project, please acknowledge ELSI by citing:

    V. W-z. Yu, F. Corsetti, A. Garcia, W. P. Huhn, M. Jacquelin, W. Jia,
    B. Lange, L. Lin, J. Lu, W. Mi, A. Seifitokaldani, A. Vazquez-Mayagoitia,
    C. Yang, H. Yang, and V. Blum
    'ELSI: A unified software interface for Kohn-Sham electronic structure solvers'
    Computer Physics Communications 222, 267-285 (2018).
    http://dx.doi.org/10.1016/j.cpc.2017.09.007


  For the real-space grid partitioning and parallelization used in this calculation, please cite:

    Ville Havu, Volker Blum, Paula Havu, and Matthias Scheffler,
    'Efficient O(N) integration for all-electron electronic structure calculation'
    'using numerically tabulated basis functions'
    Journal of Computational Physics 228, 8367-8379 (2009).
    http://dx.doi.org/10.1016/j.jcp.2009.08.008

  Of course, there are many other important community references, e.g., those cited in the
  above references. Our list is limited to references that describe implementations in the
  FHI-aims code. The reason is purely practical (length of this list) - please credit others as well.

------------------------------------------------------------
          Leaving FHI-aims.
          Date     :  20200519, Time     :  220455.360

          Computational steps:
          | Number of self-consistency cycles          :           12
          | Number of SCF (re)initializations          :            1

          Detailed time accounting                     :  max(cpu_time)    wall_clock(cpu1)
          | Total time                                 :        2.752 s           2.818 s
          | Preparation time                           :        0.092 s           0.094 s
          | Boundary condition initalization           :        0.000 s           0.001 s
          | Grid partitioning                          :        0.036 s           0.033 s
          | Preloading free-atom quantities on grid    :        0.008 s           0.005 s
          | Free-atom superposition energy             :        0.012 s           0.011 s
          | Total time for integrations                :        1.092 s           1.080 s
          | Total time for solution of K.-S. equations :        0.044 s           0.028 s
          | Total time for density update              :        0.720 s           0.723 s
          | Total time for mixing                      :        0.048 s           0.050 s
          | Total time for Hartree multipole update    :        0.056 s           0.044 s
          | Total time for Hartree multipole sum       :        0.464 s           0.444 s
          | Total time for total energy evaluation     :        0.004 s           0.005 s
          | Total time for scaled ZORA corrections     :        0.000 s           0.000 s
          | Total time for vdW correction              :        0.096 s           0.098 s

          Partial memory accounting:
          | Residual value for overall tracked memory usage across tasks :           0.000 MB (should be 0.000 MB)
          | Peak values for overall tracked memory usage (after allocating gradient_basis_wave):
          |   Minimum:        0.709 MB (on task 4)
          |   Maximum:        0.716 MB (on task 1)
          |   Average:        0.713 MB
          | Largest tracked array allocation (gradient_basis_wave):
          |   Minimum:        0.451 MB (on task 1)
          |   Maximum:        0.451 MB (on task 1)
          |   Average:        0.451 MB
          Note:  These values currently only include a subset of arrays which are explicitly tracked.
          The "true" memory usage will be greater.

          Have a nice day.
------------------------------------------------------------
